% Model:              stab.mph
% Version:            COMSOL 6.0.0.318
% Date:               May 9 2023, 00:11
% Table:              A - A
% sigma                  V (m^3)                  J (m^3)                  V (m^3)                  J (m^3)                  V (m^3)                  J (m^3)                  V (m^3)                  J (m^3)
10000                    1.9560921799454258E-11   8.332370117742375E-12    6.464274612330749E-12    1.524617390357001E-11    1.9552874277804697E-11   8.332036204851844E-12    6.443031900565724E-12    1.524781494256339E-11
100000                   1.9553449903364522E-11   8.332053206682412E-12    6.443134125545181E-12    1.5247932809777573E-11   1.9552862001509967E-11   8.332036204851844E-12    6.443027396328723E-12    1.524781497803626E-11
1000000                  1.9553340898785785E-11   8.33204436378367E-12     6.443027819615406E-12    1.5247945433863975E-11   1.9552862001509967E-11   8.332036204851844E-12    6.443034566974316E-12    1.524795442992273E-11
10000000                 1.9553286670011246E-11   8.332047331903341E-12    6.443031900565724E-12    1.5247945329833515E-11   1.9553284827166465E-11   8.332048100620187E-12    6.443031900565724E-12    1.524795289235034E-11
100000000                1.9553334783025316E-11   8.332043231347265E-12    6.332584685155265E-12    1.5256697494355333E-11   1.9552414233707895E-11   8.332348475132773E-12    6.4425367638889294E-12   1.5247979319237474E-11
1000000000               1.9553283982438137E-11   8.332047331903341E-12    6.3325838313047014E-12   1.5256655643019902E-11   1.9550697395214374E-11   8.331963717689113E-12    6.4161815915905684E-12   1.5245336504082025E-11
1.0E10                   1.9553402083978293E-11   8.332050584113864E-12    6.332589985556516E-12    1.525655531458989E-11    1.9550640408250494E-11   8.327844825431085E-12    6.415387195762671E-12    1.522622558972442E-11
