% Model:              stab.mph
% Version:            COMSOL 6.0.0.318
% Date:               May 9 2023, 00:11
% Table:              V_max - V_max
% sigma                  OK (V)                   OK (V)                   OK (V)                   OK (V)
10000                    0.048102565320003905     0.047353405056890986     0.048102471650033334     0.047354942412152934
100000                   0.04810238311980693      0.047354859948315245     0.04810247123127234      0.04735494177716628
1000000                  0.04810236747738968      0.047354828874671975     0.04810246123599894      0.047354938288986584
10000000                 0.04810236566060841      0.04735483112984849      0.0481023669568556       0.047354833099244244
100000000                0.0481023617330876       0.04732907951535645      0.04810140933935954      0.047353860573807804
1000000000               0.048102364886842684     0.04732908494943103      0.04809187000127998      0.047339494562114615
1.0E10                   0.048102392053392826     0.047329111530056346     0.047996789657387816     0.047244514240303306
