% Model:              example_comsol.mph
% Version:            COMSOL 6.0.0.318
% Date:               Sep 12 2023, 13:13
% Dimension:          3
% Nodes:              17187
% Expressions:        1
% Description:        Electric potential
% Length unit:        µm
% x                       y                        z                        V (V)
15.628971581191145        301.809713575575         54.21591790765773        -5.566471172001034E-4
14.037514287969655        299.99999999999994       56.28797673161624        -6.028511115988494E-4
14.079585738498357        299.99999999999994       52.728311079931956       -5.526623392765747E-4
17.20372020235237         299.99999999999994       55.49296709734425        -6.028592584996059E-4
163.82166289742557        386.52038863269854       79.73943010510457        -3.213907217249151E-6
156.64256191960607        399.9999999999999        68.19919303596937        0
178.20130483767355        399.9999999999999        90.79809994790938        0
190.21130325903067        399.9999999999999        61.80339887498953        0
161.80339887498948        399.9999999999999        117.55705045849463       0
149.6185748909771         383.1855362612372        106.4020452935176        -4.485819643636799E-6
141.4213562373095         399.9999999999999        141.42135623730948       0
128.5749944205968         399.9999999999999        113.5557163342858        0
146.709814547599          399.9999999999999        90.99247680471663        0
111.80634760256082        399.9999999999999        131.08792813447562       0
117.55705045849461        399.9999999999999        161.80339887498948       0
99.20445424155568         374.04451640505175       136.34814317307448       -1.9200939268701143E-5
129.8896096660367         372.464224939054         152.08119312000622       0
118.11114458230185        381.5797692579836        125.83007557259658       -1.0418398503094041E-5
152.0811931200061         372.464224939054         129.88960966603682       0
124.41594156204286        363.1595385159673        120.57222301071754       -1.9587565515091367E-5
169.7255566052474         372.6468957281039        105.79808805001608       0
183.62493375879006        372.52363183462717       79.2583352214766         0
159.58378878121246        372.8438364967506        87.23942415615792        -6.983719762105678E-6
104.49971294318973        372.464224939054         170.52803287081846       0
95.55113691187013         360.2766288745789        156.0681955412459        -1.6896313022467693E-5
116.62023695262336        342.7470619100877        162.47990747509053       0
82.10148712881802         367.0025801635297        161.1161531676363        -1.6814625102939374E-5
90.79809994790936         399.99999999999983       178.20130483767355       0
76.12498679545627         373.0818707760109        184.9459012397723        0
14.579111545440192        302.5390624999999        60.43682252739922        -6.148944901506001E-4
13.549643466306572        299.99999999999994       62.57790137820406        -6.991666928038873E-4
12.071860914233735        299.99999999999994       59.10760975688773        -6.48299833494839E-4
16.704306502719067        299.99999999999994       59.817612495369744       -6.54748617959394E-4
13.890732327108367        299.99999999999994       46.634388293961926       -4.914999262433706E-4
15.744774645693521        302.65192479626313       47.552840781702635       -4.858820989230571E-4
12.942591216170618        299.99999999999994       49.86937060862825        -5.110842440897642E-4
17.140940810765624        299.99999999999994       49.68099845105631        -5.390647031227517E-4
12.831171357656082        303.125                  50.641867848532414       -4.985413228557263E-4
10.000000000000012        300                      51.66666666666666        -5.096027275985582E-4
10.000000000000014        300                      48.33333333333334        -4.782878353739435E-4
12.351792368024704        304.2299482557508        56.426364064656745       -5.458892020953809E-4
10.000000000000014        300                      54.999999999999986       -5.530135329078937E-4
19.01991209781603         304.10156249999994       55.99337827709065        -5.395144878863977E-4
17.086362176646645        305.0781249999999        61.766035297910705       -5.702047302268624E-4
88.58892060269852         399.9999999999999        147.37018092448113       0
61.80339887498949         399.99999999999983       190.21130325903064       0
66.41524598884985         399.9999999999999        159.17799901165392       0
10.242277129432717        303.125                  52.947217540422166       -5.1428101469823E-4
8.54349297919922          302.6519775390625        56.19921822257107        -5.573956907566492E-4
7.466441735532348         299.99999999999994       52.52897775767066        -5.133765455831322E-4
8.174883992001114         299.99999999999994       59.032638833943764       -6.477160303672553E-4
6.000000000000011         300                      54.999999999999986       -5.480594339355593E-4
4.81069153264175          302.81379437311386       57.11302512935736        -5.700454783592047E-4
169.9751032409789         365.97229792563365       59.04069337318624        -7.961488725610915E-6
197.53766811902753        399.9999999999999        31.286893008046224       0
194.06629178875002        371.0859759523431        48.355706916182534       0
167.03763253412777        399.9999999999999        41.634309189652384       0
158.23982674565264        386.52038863269854       55.15753472597608        -5.290085252318173E-6
106.35315734410524        354.34082331862686       133.93029306598348       -3.059330809869544E-5
149.18136324001384        354.90035881352406       106.99915652613166       -1.2202856721879617E-5
141.17081456935995        343.72403031952274       141.67145483061643       0
134.66425091784518        338.2330876822359        120.58652914149049       -2.25508380705229E-5
177.57849803583002        346.8616533979294        92.01020071350084        0
160.92897557306298        343.42964510457364       118.75127292372271       0
152.86809265108022        339.8018992214393        95.75590208293268        -1.8104869486478E-5
112.44049612866016        331.4677328001704        132.23879454437696       -4.136198989513316E-5
130.25303088923           315.419408371523         151.77004956238662       0
164.8149143065372         347.8695252702562        69.52972166197804        -1.3837326078220741E-5
187.38834861832535        349.65749600971776       69.8971158353259         0
74.49107158318988         352.314356981063         165.33576827351587       -2.510998442525745E-5
89.27888185193346         343.08777857412053       178.96726308257752       0
86.60256088055054         348.0890328101036        141.60835821167333       -4.6836825339725935E-5
60.78141517731551         347.5944144301987        190.54033580594637       0
31.28689300804621         399.9999999999999        197.5376681190275        0
46.527281229895145        377.8601198376237        194.51275562634513       0
38.94710318218748         399.9999999999999        167.2113718804562        0
24.628531650092572        381.30624264550556       179.27855151929222       -1.0929418435133456E-5
13.664845383317004        399.9999999999999        171.7384597541238        0
0                         399.9999999999999        199.99999999999997       0
22.675869681846606        380.1995350486567        198.71035437080752       0
86.96643214487943         322.75226267949307       145.8763456494603        -6.515650420191287E-5
185.6368552490679         324.07034530084763       74.42417599971527        0
198.94390085069637        376.7245225078553        20.5261860633748         0
171.57581288950604        399.9999999999999        16.19292253361122        0
199.99999999999997        399.9999999999999        6.123233995736765E-14    0
163.95054280633687        379.71048200831996       27.50798702925355        -6.7678620747331226E-6
175.79425132191508        359.91542254103604       16.379458434541917       -8.195807892330085E-6
198.64759871086332        351.95734685305587       23.219205981424416       0
102.98931387336397        310.1170043697198        171.44445522644853       0
105.92809713625971        299.14668860925434       139.033264343172         -6.340573199504302E-5
120.57004199005853        290.58367303274713       159.5708775889746        0
87.33030340920834         297.41549254888247       150.14433308724728       -7.801350333281378E-5
7.298374101728379         305.261288748847         57.30967515269604        -5.440275702291527E-4
9.50758756139071          302.66388317144936       60.41054025355337        -6.222998770545415E-4
10.08543212483618         299.99999999999994       62.995933959498565       -7.203276649359907E-4
7.118697899786004         303.4988929594707        61.04522214760201        -6.186096598928949E-4
4.203540517836013         299.99999999999994       58.897894582725804       -6.492949753121618E-4
2.000000000000007         300                      54.999999999999986       -5.473323055773812E-4
6.104837953142173         299.99999999999994       63.14791518837864        -7.386961709713904E-4
53.11527127217073         369.70052761281454       173.1085145453996        -1.6973693384515818E-5
11.849595180496642        303.125                  45.99601893111452        -4.5899774151037263E-4
7.490586360192772         302.73742675781244       47.835027184350565       -4.6363797930250647E-4
10.000000000000012        300                      44.999999999999986       -4.547436982713509E-4
14.068988096627333        299.99999999999994       42.87653969389559        -4.671690818870354E-4
16.429272204255717        299.99999999999994       43.86187222943604        -4.8531974305529173E-4
14.634588956380988        305.4687499999999        42.59479153021448        -4.2803314289141184E-4
0.4071615158597885        299.99999999999994       58.79803607085378        -6.479966071245195E-4
0.355075128115766         302.93579101562494       56.93611181697399        -5.666509028081581E-4
-1.9999999999999944       300                      54.999999999999986       -5.46329095277331E-4
10.812297400486303        309.14723374826303       61.288130898780786       -5.201483103323634E-4
5.65335408570507          305.5877685546874        53.20559957581603        -4.95581692007929E-4
16.564425882991095        299.99999999999994       41.22254121325544        -4.667243941464548E-4
175.22863955397702        348.5524100416001        43.45712877535493        -1.0269317573284333E-5
194.1320063847863         337.6838560665603        48.09120602581398        0
155.69408817484586        333.1603314632346        78.27563669065395        -2.3690565220139283E-5
151.19933158130183        315.48429008989837       130.91509511652023       0
123.60360282353132        311.5821452246095        127.432583201669         -4.218944708054977E-5
135.67343485836625        317.7301205710034        114.7333554343261        -3.418694815314088E-5
171.1690007957623         311.6195426713808        103.44647488716242       0
141.84850418019218        285.30991843932713       140.9929142256518        0
119.95080493992474        291.74174007112794       128.8135691532145        -5.658693127684446E-5
158.39095685398496        315.23073535233044       69.72913437365091        -2.9048825190336398E-5
175.22647369678174        322.4182048464976        53.18792949381746        -1.3827443979362335E-5
183.7788445012572         293.1809292312183        78.90080046351065        0
162.02863796824306        295.14065266110254       78.59400090961884        -2.6541173114745062E-5
67.27782341478019         325.87025131957097       154.63384684588019       -7.259946655956407E-5
64.02961929604785         336.7323328748849        172.5870913259133        -3.061255279267195E-5
72.037576109666           315.54567102094717       186.57595672605856       0
30.407999695917436        364.8259004847088        176.28706131945236       -2.3309697703018288E-5
-31.28689300804611        399.9999999999999        197.53766811902753       0
-20.526186063374567       376.7245225078552        198.9439008506964        0
-15.125108385029272       399.9999999999999        170.37876651189862       0
4.599800736787384         375.9372569962124        175.0464713079176        -1.8989582263432308E-5
50.78234298283773         343.2126903279406        173.44397136758317       -3.444080335027894E-5
44.84648026573255         328.73094030683745       194.90713996099595       0
28.7151798269557          353.58336226358773       197.92786172619964       0
-1.884071998688236E-15    369.23076923076917       200                      0
56.85038651428701         308.6193133573915        176.71607976292478       -4.351490505395467E-5
71.22074377922775         306.3382857722069        158.31582591306866       -7.837649726563993E-5
83.37445453595585         287.1212809120034        181.79301507712512       0
75.16366414367532         286.8063202248429        161.99780498025706       -7.567133053584632E-5
200                       369.23076923076917       5.934826795867942E-14    0
193.09483260498712        307.5105600085099        52.09976603836151        0
198.40407507907832        322.0529581960931        25.21553077005224        0
172.80645645610383        328.6517332474093        18.005896930069714       -1.591957382240765E-5
197.53766811902753        399.99999999999983       -31.28689300804611       0
198.71035437080755        380.19953504865674       -22.675869681846375      0
171.4671055405603         399.9999999999999        -13.198704971093855      0
173.63067843123767        379.9577112705181        1.590376731724032        -4.2601921327707705E-6
200                       338.4615384615385        5.746419595999117E-14    0
174.6200738082824         350.05147211936344       -2.5784632178374034      -9.603004135785304E-6
177.36413691408757        370.6279802017603        -30.152714336090416      -3.806134266694182E-6
102.59499107121364        277.67482416541543       171.68071472095397       0
116.29800705631814        271.9013349176464        130.19455510476          -7.088583734537866E-5
123.31526389940464        262.2667548146124        157.45902860560327       0
93.13356591104782         270.786274160272         142.9521901978699        -1.0219666121816703E-4
-3.9450412639184247       299.99999999999994       58.70259184047663        -6.423670635837341E-4
-4.175160589995999        303.0303955078125        54.73986658330438        -5.313758249952722E-4
15.416290129762947        302.44140624999994       -41.579228545120294      -1.1146394015413628E-4
13.994264217654662        299.99999999999994       -42.98465485267924       -1.0980814268830658E-4
18.35627730055381         299.99999999999994       -41.68086248081485       -1.1238049857066134E-4
14.611215126349785        299.99999999999994       -39.014999055539434      -1.2008720204401317E-4
11.421319261149131        299.99999999999994       -41.137803922451816      -1.1506151161089106E-4
10.39334221466916         302.3178509706576        -41.670288755496536      -1.1168116297349171E-4
10.000000000000012        300                      -44.999999999999986      -1.0373591385202867E-4
8.036250463581172         302.2203445947574        -44.05106801824605       -1.056713879169303E-4
8.11141612189461          299.99999999999994       -41.13199824261373       -1.1540709536383186E-4
6.000000000000007         300                      -44.999999999999986      -1.0373239087684077E-4
12.898895824355902        303.08837890624994       -37.56169553897596       -1.2054883091420707E-4
6.585806974092892         302.66113281249994       -40.62873256742434       -1.1455665948604033E-4
4.053898727830562         299.99999999999994       -41.195341500253626      -1.1558928376557131E-4
7.824111167768523         302.5956970210362        42.60045651172475        -4.3338860191788933E-4
11.061598576405556        305.1733275657737        42.131223108685504       -4.23398747693784E-4
7.751890543951664         305.47485351562494       45.670574679022415       -4.378839901148922E-4
6.000000000000011         300                      44.999999999999986       -4.464985005492959E-4
2.000000000000011         300                      44.999999999999986       -4.4347849379672196E-4
-1.9999999999999867       300                      44.999999999999986       -4.434365439520181E-4
0.8972657902114913        303.3203125              44.34832461930885        -4.3457025168611266E-4
-0.33764895789268884      299.99999999999994       41.27954601503298        -4.303664332594116E-4
4.076684311448927         303.51562499999994       43.273599869119494       -4.29707483367321E-4
17.38062287674247         303.51651316701464       -34.842729486159485      -1.2547804775951728E-4
4.1978111346233415        299.99999999999994       41.0491017863745         -4.315070186433228E-4
11.664059513700419        299.99999999999994       40.138105526943576       -4.4439044103106016E-4
14.864522398647384        299.99999999999994       39.73980072772159        -4.5285657347906823E-4
7.807733770090175         299.99999999999994       40.64057106930324        -4.356841654178156E-4
15.186332231625292        303.7330431039303        37.86182406440617        -4.14520922904298E-4
0.36380771430152703       303.22265624999994       40.010087995286845       -4.157098627798235E-4
9.205749127407149         303.2658788897131        37.26189250870117        -4.0944026172050503E-4
9.918230134068828         299.99999999999994       36.52515709592927        -4.269302506500334E-4
-5.999999999999994        300                      55                       -5.466202136815023E-4
-7.7894782897472865       299.99999999999994       58.820332737205504       -6.418455347924874E-4
-6.1005762061652735       303.12499999999994       59.237517476831115       -6.001807401466408E-4
-8.138647209557869        303.125                  55.61565199766119        -5.439224869073223E-4
-6.277294419115738        306.24999999999994       56.231303995322406       -5.20338404612439E-4
-9.999999999999988        300                      48.33333333333333        -4.7771595425405205E-4
-13.465516500430518       299.99999999999994       46.72355955467456        -4.8763181597520346E-4
-11.913787506567754       303.125                  47.68647828602043        -4.704597695782615E-4
-9.999999999999986        300                      44.999999999999986       -4.548973884988389E-4
-13.70151808630543        299.99999999999994       49.52267268506845        -5.13738660242829E-4
-8.282152731025944        303.125                  47.089716036164866       -4.576794162033278E-4
-9.59651045135945         302.70577249072846       51.0052553592989         -4.94582937356278E-4
-0.2054684195770283       306.64062499999994       43.69664923861769        -4.177629427782886E-4
-5.999999999999987        300                      44.999999999999986       -4.463289295549565E-4
-3.981308877431633        299.99999999999994       41.54861582079889        -4.3201463913923957E-4
-4.282152731025944        303.125                  45.42304936949819        -4.4250098516422415E-4
-7.813331753735021        302.05078124999994       42.981703833224756       -4.3637031330657415E-4
-8.181771622359257        299.99999999999994       41.508839556376245       -4.375742937663391E-4
-3.0436114826836285       303.12499999999994       40.59241244612972        -4.187391773607032E-4
1.065264386495743         306.4453124999999        38.74062997554071        -3.953191119768858E-4
-6.564305462051902        306.24999999999994       45.84609873899639        -4.338477434217072E-4
0.07824633203383015       302.197265625            -42.65987776646109       -1.0963854007446952E-4
0.546782178598204         299.99999999999994       -41.148690709704894      -1.1592679320535845E-4
-3.939353234628739        299.99999999999994       -40.88701033428982       -1.1652029600830094E-4
-1.9999999999999911       300                      -44.999999999999986      -1.038176095631625E-4
2.0000000000000053        300                      -44.999999999999986      -1.0384766956344173E-4
4.435129381367618         302.6611328125           -43.91444910103816       -1.05946512911024E-4
10.000000000000012        300                      -48.33333333333333       -9.5874407978117E-5
13.340954614198273        299.99999999999994       -46.97073326023894       -9.962421672197356E-5
10.303731590507352        303.0333922459529        -46.52745296392881       -9.932946939303991E-5
15.40160620133619         303.34169984385187       -45.53653227590672       -1.0132484460383077E-4
16.401798275785374        299.99999999999994       -45.22882119218451       -1.0423873827839381E-4
12.047202898316424        305.3030160757212        -42.54425375076384       -1.0706979674560611E-4
-5.99999999999999         300                      -44.999999999999986      -1.0378269662401756E-4
-2.494586554860471        303.63769531249994       -45.06892810592578       -1.0264814581809902E-4
12.408490914526926        299.99999999999994       -49.82304467726632       -9.310824464037254E-5
8.880834517365244         303.12499999999994       -49.10731509223139       -9.368323832679058E-5
10.000000000000012        299.99999999999994       -51.66666666666666       -8.899801046849202E-5
80.10100819230628         261.53350147840735       183.25891107003793       0
62.99702487814226         276.1971479008033        173.85127687326684       -6.084961295073346E-5
56.02492499050698         282.7230823987091        191.99272845555393       0
-61.803398874989426       399.9999999999999        190.21130325903073       0
-48.35570691618239        371.08597595234295       194.06629178875002       0
-40.279232850914944       399.9999999999999        167.27618424757563       0
-61.29138488983374        369.8017811387774        171.5169264989958        -1.5444083115668587E-5
19.15039542442597         299.99999999999994       -36.757033241917135      -1.2397656074707725E-4
163.43747048888736        322.8954481499186        32.44382632807361        -2.4900789937297227E-5
173.31500270285636        278.6710349869285        99.80936748676898        0
130.86894813184085        255.86008157894733       125.04466456797938       -4.877834276082728E-5
141.2213098807171         250.71424007089354       141.6211200194889        0
157.48882357466204        261.36685508149975       123.27720977159152       0
52.319273675691676        299.99999999999994       85.22125263235213        -3.4726890704024014E-4
56.03418101651208         311.2993658935764        80.53847141644036        -2.835230287144952E-4
65.08963944683762         299.99999999999994       75.91644858301792        -2.7918241743193044E-4
51.00955298163807         299.99999999999994       70.0779014069962         -3.715059667650309E-4
64.80643806296122         305.17030353134777       90.27768916983985        -2.634791293189617E-4
76.17263627883167         313.4637130232202        80.5257665682268         -1.9748841145331497E-4
77.81029071777778         299.99999999999994       62.813488642578385       -2.1456012508001314E-4
65.21357246469461         318.33014238370754       63.875523041207984       -2.193202128840663E-4
59.67304291997762         287.8401185693237        80.24417703902571        -3.852569202659523E-4
60.91118367134077         299.99999999999994       59.27267298379964        -3.005741926784683E-4
74.07980254933489         290.4578140747922        84.02741075456889        -2.7833111220714347E-4
159.79212812308316        290.26037335969477       120.27666352994738       0
136.68261879888732        297.2271534597708        108.8801817271617        -4.64522676304265E-5
144.9341482103929         284.0221926261629        95.62631564190744        -4.7063402181881175E-5
139.82736479556743        270.16843595557145       105.06123905469732       -5.2644441617693944E-5
163.31273830921023        287.5913944657676        61.584441813608414       -3.169164803843902E-5
171.87358268691963        305.5748101704862        31.63324077865602        -2.1305966006449474E-5
198.13425246163166        292.3076923076923        27.254687697172653       0
192.57051415478907        276.915508357049         54.005528218509205       0
172.5326401753657         272.4364988689563        54.37278530552817        -2.310240770528385E-5
153.18567762189844        270.8172317925549        82.3724495566532         -4.343536152252859E-5
184.20544922732407        262.66444675546654       77.89963077550325        0
23.774429212755813        337.85476813673154       180.8078406139828        -3.7035437370189145E-5
43.16164655629205         307.03973262162987       195.28715335768948       0
41.97245867232599         322.93534942365613       175.8173801434547        -5.0473697707916936E-5
-32.70621160514987        373.2876563328035        174.58934483322193       -1.841223713410525E-5
-4.465243909742235        351.87451399242497       178.35448286171146       -3.4589003675803704E-5
-23.21920598142419        351.957346853056         198.64759871086335       0
20.140575453398412        320.85779251116816       198.98330889902792       0
-3.768143997376468E-15    338.4615384615385        200                      0
39.70178201283956         287.59187464333286       180.65350022326305       -6.065179867248435E-5
69.96912476577755         269.6712134028976        155.70982529097972       -1.2163421518738468E-4
53.41538259698786         296.87689403947553       98.13053382590024        -3.50495234765694E-4
39.74390983442892         300                      91.76269672559717        -4.126953456187156E-4
41.85873829298373         309.5559329467882        81.65277414404136        -3.632503949948269E-4
45.07499799710934         312.9822204746537        96.81377645162502        -3.0186017085232815E-4
40.284776422574296        299.99999999999994       78.38385099426675        -4.470545224546648E-4
49.2600505163301          284.95886152059006       87.02555614949324        -5.005641804120032E-4
24.53355522769279         289.6345888412607        198.489558082761         0
197.92786172619964        353.58336226358773       -28.71517982695564       0
184.79110658032593        325.47554291250043       -0.6033359520656737      -8.06821959085511E-6
199.99999999999997        307.6923076923077        5.5580123961302956E-14   0
198.98330889902792        320.8577925111683        -20.140575453398363      0
167.8303670812795         279.5907287744967        38.831050504194806       -2.9686973348463298E-5
67.40965981183187         309.16507119185377       54.607297981976195       -2.332468781754185E-4
83.16522095932626         319.2318565116101        56.9517924193751         -1.5749978056625645E-4
89.22806507318182         300                      45.14811454009254        -1.581232426951237E-4
98.96047062146896         308.1855362612373        58.73648676816053        -1.3665716286108228E-4
183.85823281114173        302.39861983557734       13.024007896520626       -1.130806148025179E-5
194.51275562634513        377.8601198376238        -46.52728122989501       0
166.55006273024313        399.9999999999999        -36.91020323966989       0
190.21130325903073        399.9999999999999        -61.803398874989426      0
173.44589629464974        340.1875216976908        -21.536384870216725      -9.890530579957711E-6
156.71275737115664        374.39860360754966       -43.625793051110996      -5.862141726224123E-6
169.67828646028545        350.563530346623         -42.38478484961046       -7.254352235154041E-6
178.20130483767358        399.9999999999999        -90.7980999479093        0
184.94590123977227        373.0818707760109        -76.1249867954563        0
158.11083126332667        399.9999999999999        -65.76749257621593       0
190.54033580594637        347.5944144301987        -60.78141517731546       0
14.20477266782484         303.96906521818624       -49.30875378034551       -9.30414421113885E-5
14.67007959147889         299.99999999999994       -49.628392630213284      -9.412655473055529E-5
13.850712388895603        299.99999999999994       -52.858804635380096      -8.74537773005956E-5
161.463460084432          378.44331461190313       -80.53137368352671       -2.03920823313828E-6
62.74589913157176         279.34681602049045       94.46609487268829        -3.9087849940082543E-4
59.41840268524046         272.79920462972393       80.43291255658099        -4.905905721897853E-4
102.2917677764295         245.77143846862174       171.8615554601232        0
84.58377830936486         244.40434708737553       151.69034804284976       -1.0484414990719838E-4
78.42004668628564         230.3159427787853        183.98450010183134       0
65.61359681930867         255.3839762138054        167.73302619485008       -8.730905543112601E-5
122.65867382647163        231.66063973802588       157.9710408116983        0
113.18782212139837        242.3560816581399        130.52488216032077       -8.313396340623644E-5
101.59895284781946        226.3465840473037        138.43255430068442       -9.36762848127064E-5
157.63751912913975        231.2149040101839        123.08701216135725       0
141.26444107348033        218.12059563865637       141.57809748756057       0
126.80808633226144        226.41165612017664       125.213580006088         -5.665664539920174E-5
110.07763718647861        212.8108283986334        130.85520921588162       -8.257118154829378E-5
69.60574715896914         299.99999999999994       45.3390729227444         -2.3624544145699878E-4
84.63722406872814         287.010632885618         53.259180447505          -2.07598169440845E-4
95.2033174423517          293.59390330323913       83.18270535431638        -1.7617092708180872E-4
-5.92385799321481         299.99999999999994       62.2437309583398         -7.245659478724715E-4
33.83785083470801         305.2881679532385        99.00531077789992        -3.9270160603494675E-4