% Model:              example_comsol.mph
% Version:            COMSOL 6.0.0.318
% Date:               Sep 13 2023, 17:27
% Dimension:          3
% Nodes:              15481
% Expressions:        1
% Description:        Electric potential
% Length unit:        µm
% x                       y                        z                        V (V)
22.484855096766893        -180.44024107148363      -198.7320590425143       0
1.884071998688236E-15     -169.23076923076925      -199.99999999999991      0
7.498798913309287E-31     -199.99999999999997      -199.99999999999994      0
11.195453087153558        -175.05355489532818      -173.62457793259432      -6.316820911149902E-7
15.15841988368085         -158.78641977941433      -178.88365764770433      -8.109491416172956E-7
-19.477667757670094       -178.7914902015904       -199.0492915303187       0
-9.083381947850496        -171.15302905667804      -179.46557290393207      -5.614849647615339E-7
-21.94316529547773        -153.43474910373456      -198.79259920031058      0
-16.534591927140582       -144.13496871181462      -182.09430375469614      -9.145452575714516E-7
-23.503204023092355       -177.61379559899575      -177.737943048267        -4.4827672869823036E-7
-46.690634135423636       -171.8798326087572       -194.47360922251636      0
-31.286893008046164       -199.99999999999991      -197.53766811902747      0
-11.881160228758091       -199.99999999999994      -170.82097804615927      0
-36.66723284380137        -199.99999999999994      -165.37779263407617      0
-61.803398874989455       -199.99999999999994      -190.21130325903064      0
31.286893008046164        -199.99999999999997      -197.5376681190275       0
16.974321352132083        -199.99999999999994      -169.01488480933696      0
61.803398874989504        -199.99999999999997      -190.21130325903064      0
48.32894225727372         -178.52797810350347      -194.07295880748842      0
41.720530640103284        -199.99999999999997      -166.45610294175611      0
3.76814399737647E-15      -138.4615384615385       -199.99999999999997      0
31.474288122157606        -178.9540807339783       -167.78358296125654      -6.120085794947483E-7
30.240112013775104        -166.5061761905206       -182.83452198955982      -4.700138164157574E-7
29.005935905392594        -154.05827164706295      -197.88546101786318      0
2.609930000951933         -142.33933622355593      -177.75419975904674      -1.2336234091698138E-6
-25.636776573243026       -123.86177410567147      -198.3500836574908       0
-48.445656065669574       -138.8530511784379       -194.04385691994176      0
-5.5630092794017125       -121.26374800610118      -182.69800415454083      -1.2960390311712088E-6
-9.913675580289075        -101.97107326723088      -58.09220751531485       -1.882730968151384E-5
-11.483189310132158       -100.00000000000001      -56.34133941560883       -1.943282929062896E-5
-10.000000000000012       -99.99999999999997       -59.99999999999999       -1.85448328595143E-5
-13.535533906870606       -99.99999999999997       -58.53553390407976       -1.9189354243414508E-5
-32.16018046977566        -132.93557459145163      -175.0131972776425       -1.448736444314877E-6
-33.71010531777148        -152.87220199280216      -170.33500993487377      -1.2293391034834054E-6
-56.47773384459954        -173.4389735539022       -169.14123645478733      -5.798877456886314E-7
-58.46173085478558        -144.42464008826616      -176.9545212316599       -7.49902718937906E-7
-69.38301072626186        -150.0862447460924       -187.57931075297037      0
-85.98600170679114        -173.80554520044603      -156.79553008155102      -5.93861059237399E-7
-90.79809994790935        -199.99999999999994      -178.20130483767355      0
-78.26955727172079        -173.36598890027577      -184.0485707754581       0
-64.79495393020767        -200.00000000000003      -157.95489927293204      0
-73.72204004931956        -125.59665138173312      -185.91681153399364      0
-107.05724765932807       -183.0153492791411       -148.0986384497642       -3.2921319392330896E-7
-117.55705045849459       -199.99999999999994      -161.80339887498945      0
-86.53092469798686        -200.00000000000003      -145.86549718172154      0
-105.70716985980684       -172.61297590184483      -169.78219647604377      0
-129.8896096660367        -172.46422493905402      -152.08119312000616      0
-141.42135623730948       -199.99999999999994      -141.4213562373095       0
56.038746065336035        -184.18907803224053      -163.0977383508687       -4.450482404980085E-7
5.652215996064705E-15     -107.69230769230772      -199.99999999999994      0
89.9975846186291          -200.00000000000003      -146.4680798257371       0
90.48489609599557         -176.67162529173956      -155.68581169396572      -5.01781984233188E-7
117.55705045849463        -199.99999999999997      -161.80339887498948      0
90.79809994790938         -199.99999999999997      -178.20130483767355      0
68.6006167343139          -200.00000000000003      -155.8721521489927       0
77.7713491021639          -174.99826084011204      -184.25964631147357      0
59.78223660787414         -168.98105724047653      -176.3703883443595       -4.214891959540843E-7
63.52572715041223         -153.7730364487125       -189.6430383378503       0
104.49971294318972        -172.46422493905405      -170.52803287081844      0
28.25369079376119         -121.4293010247121       -197.99426495868641      0
21.754451929044446        -140.54370373529719      -173.4140957633974       -1.4659593980089111E-6
50.634219191174644        -129.87279693429207      -193.48430387734317      0
60.052234710828124        -141.0952659208014       -176.1533596334616       -8.142952022488809E-7
45.97425489218313         -157.90816146795657      -166.55228111317604      -1.1545148360665623E-6
44.992743780513216        -130.96985756081997      -169.71838932151329      -1.6884701230199006E-6
74.13021452947312         -124.28237037364627      -185.75443815374717      0
42.09157261409666         -115.20413138595593      -180.33075284246186      -1.2308921235077785E-6
14.284061926668807        -114.52536040699962      -173.97382943940266      -2.130135327525451E-6
27.643049091024157        -91.69845951605423       -198.08044284318228      0
6.813671924293167         -88.50701707870203       -174.5335631154079       -2.8053315408978415E-6
12.13891378984756         -102.35490990166574      -58.77961174665751       -1.8772820147396078E-5
13.53553390407976         -99.99999999999996       -58.535533906870555      -1.9222955311022965E-5
10.000000000000012        -99.99999999999997       -59.99999999999999       -1.8549612862269236E-5
10.837326082691657        -100.00000000000001      -55.91004347122518       -1.9495006240962376E-5
12.712413655498523        -100.00000000000001      -64.60134918224983       -1.777312186668352E-5
14.27782757969511         -104.70981980333144      -57.559223493315024      -1.8925767747910334E-5
16.463918347547423        -104.46503403773936      -61.460188161362694      -1.8027074893858637E-5
14.999999999999998        -99.99999999999997       -54.999999999999986      -2.0367296003827006E-5
12.091736811842791        -104.95460556892354      -53.65825882526735       -1.9868947191578494E-5
17.37275549164157         -103.12500000000001      -55.35728937755009       -1.9982566701526193E-5
16.76572634766029         -103.12500000000001      -51.9543515662755        -2.101375113542319E-5
-12.030419427775644       -103.94214653446174      -60.34546497867026       -1.8218317189018233E-5
-14.999999999999998       -99.99999999999997       -54.999999999999986      -2.0393099020371627E-5
-15.735768986773564       -104.31482326723088      -57.87115688674026       -1.8970776032896285E-5
-11.827333963454636       -103.01190382111544      -55.35719801312294       -1.957862737730762E-5
-67.77353580320587        -128.53693025086986      -169.26212787808194      -1.2957396132527611E-6
-91.47856594773798        -147.68280311431909      -177.852950417319        0
-51.42445712297977        -109.23861952747893      -193.27577502006505      0
-27.25468769717266        -92.30769230769232       -198.1342524616316       0
-23.562940979575966       -106.15580872802359      -170.91016234061792      -2.565682591219348E-6
-14.022028491531147       -100.00000000000001      -62.77834554785762       -1.8271784121328643E-5
-17.869038836108675       -100.00000000000001      -59.230125153636024      -1.9461419286352625E-5
-68.47780564390159        -149.99622899809438      -159.865185543378        -1.3677092446172413E-6
-94.01800540394976        -156.85675083630068      -156.123414220929        -8.320305714507675E-7
-76.31940178352761        -95.59057976198459       -184.8657591643311       0
-116.23712469985105       -174.1275681941194       -132.53567204683722      -7.356392707646565E-7
-152.08119312000613       -172.46422493905402      -129.88960966603673      0
-110.12202267179954       -200.00000000000003      -129.47878464137193      0
-161.80339887498943       -199.99999999999994      -117.55705045849463      0
-127.70367354217875       -200.00000000000003      -111.26789457059358      0
-15.439877956776462       -85.92838091151862       -170.34980832649998      -3.326513428231166E-6
-101.18725558881252       -114.12279423312906      -172.5141713205159       0
-77.08534075162616        -112.64922041347351      -161.56973452450404      -1.9666385931053667E-6
-87.23571649813076        -139.87210011544178      -158.58096091251247      -1.2308086043300796E-6
-117.43231927545979       -143.69690078285112      -161.89394797084438      0
-118.94121802125001       -155.18647550724836      -137.95576684899936      -9.488948569927271E-7
-141.32499118233847       -144.34225245621434      -141.51765567345984      0
-125.41700174037405       -165.23978710909762      -116.97270564391025      -1.2745020028705757E-6
129.8896096660368         -172.46422493905405      -152.08119312000608      0
121.80582051843625        -176.5401405869088       -134.42785215585602      -5.2135009977776E-7
141.4213562373095         -199.99999999999997      -141.42135623730948      0
112.04370484614574        -200.00000000000003      -128.7021074471577       0
109.95003541935775        -166.84816870429054      -137.6874739035363       -9.238535253581035E-7
7.53628799475294E-15      -76.92307692307693       -199.99999999999997      0
-27.254687697172653       -61.538461538461576      -198.1342524616316       0
-24.35099474470987        -52.21667532489341       -181.58979898549387      -2.513765050892518E-6
9.420359993441178E-15     -46.153846153846175      -199.99999999999994      0
-27.254687697172653       -30.769230769230802      -198.1342524616316       0
-12.873757574312467       -30.075946581865324      -182.24004335218982      -2.980256754403506E-6
130.88809569626292        -200.00000000000003      -110.15308551216701      0
161.80339887498948        -199.99999999999997      -117.55705045849459      0
134.76762431472397        -176.23225331309462      -110.64635130901203      -8.060971436214503E-7
13.346147540993929        -109.90921113784708      -51.40647417930954       -1.975337534222911E-5
91.88775314548093         -147.0322051554006       -177.64188926566598      0
90.52960951636531         -154.2636435172946       -148.83744866901878      -1.3081741980757258E-6
70.35696149056879         -168.3781560644811       -159.73937375998128      -8.424652450014593E-7
105.52589888897558        -142.42563041330337      -143.4368118888196       -1.4566285681246818E-6
118.24503467000584        -144.13484457096152      -161.30130742151195      0
75.44206799571593         -123.89923647567332      -156.97739200774416      -2.119462713235538E-6
52.148372687090195        -106.04330824452246      -193.08171126776435      0
102.70294361789566        -112.79455219465058      -171.61615708382277      0
88.89597702568607         -109.32464397707744      -156.7170632852655       -1.996097932874334E-6
78.0949397111956          -94.13281303499986       -184.1227318706322       0
55.92945443443214         -108.97896174719976      -162.66724072623725      -2.661546201886535E-6
36.416840873148345        -94.05868701872626       -168.35708944473038      -2.9989862669789875E-6
53.75082366532281         -76.94852978245562       -192.6417632687662       0
27.25468769717266         -61.538461538461576      -198.13425246163163      0
25.933346619932514        -70.63420923735731       -171.7779711083862       -3.4833849691152553E-6
19.74551098328314         -106.25000000000001      -55.71457875510019       -1.9347556117649922E-5
20.068328778103417        -100.00000000000001      -58.57660525668179       -1.9754229193726875E-5
13.535534260423972        -99.99999999999999       -41.464466449473605      -2.5749851701105316E-5
11.564067529734922        -100.00000000000001      -43.449310480207735      -2.4129940142595212E-5
13.85644039720623         -105.00550989708658      -41.20377019347487       -2.4411336930009362E-5
10.000001000000026        -100.00000000000001      -40                      -2.6389594264058085E-5
13.45300165907447         -100.00000000000001      -37.361912549733454      -2.7993633937845012E-5
14.999999999999998        -99.99999999999997       -44.999999999999986      -2.4095261983923893E-5
17.530701100445686        -100.00000000000001      -40.642708194101175      -2.642971473207555E-5
19.762322413513445        -100.00000000000001      -52.493023030277634      -2.1754258236399358E-5
161.782246344776          -183.6334191701061       -86.89580505024892       -3.9642144256423807E-7
178.20130483767358        -200                     -90.79809994790934       0
146.4342898363889         -200.00000000000003      -87.20053440310261       0
-54.96490093252066        -103.04653278222544      -165.5500203083761       -2.5808346786147085E-6
-52.09512535716122        -78.81449862054318       -193.09608466776754      0
-77.1621837461092         -64.09446042298504       -184.51557495109097      0
-62.14403285263056        -84.35688509336225       -163.16794981616343      -3.1646097813731794E-6
-41.21415102826619        -58.90356529682571       -175.56784570150327      -2.884406596838399E-6
-39.902844547045014       -86.12129262021891       -173.14834175903158      -2.586197332751346E-6
-52.93043557502767        -47.68368915880879       -192.86878697663295      0
-37.72408676089621        -29.139752247970335      -178.80858274732597      -3.0694926992299393E-6
-59.80889760309071        -50.56774634483961       -161.0709695688429       -4.724075618722931E-6
-106.29687083353829       -124.408701224931        -145.81814714765773      -1.7185091275551101E-6
-81.0057520248278         -90.07847992647986       -156.02283814390978      -2.9959559882751216E-6
-119.28630094011729       -91.8983600739811        -160.53279542829796      0
-99.86747119702503        -95.8000747595975        -148.8777264716562       -2.5496244765163424E-6
-99.7416553503282         -81.01071186920285       -173.35397944084335      0
-83.06990438261225        -67.84839687196926       -161.89796838029747      -2.7135634001242504E-6
-10.939176515587542       -113.52005724438463      -93.52712755561714       -1.0640679849971425E-5
3.7493994566546434E-31    -99.99999999999999       -99.99999999999997       -1.0625481337837529E-5
-21.76172009261235        -99.99999999999997       -97.60327088828568       -1.0910572683504643E-5
-7.790980538212644        -100.00000000000001      -80.7839966728375        -1.403922843361453E-5
-13.47556130914829        -110.20605569840885      -110.97203834765907      -8.740460525769086E-6
-12.783309837508613       -93.83889145402688       -117.25018606664348      -9.45650318500034E-6
-13.785149185229242       -84.59987854404194       -99.04529096297799       -1.240869331134111E-5
-33.61341516981289        -90.82867646144746       -107.09273036162223      -1.0891839447378977E-5
-143.90964874303828       -166.84816870429054      -109.49916437357301      -8.535755421885763E-7
-170.52803287081838       -172.46422493905402      -104.4997129431898       0
-161.30130742151195       -144.13484457096138      -118.2450346700058       0
-11.57572532284653        -100.00000000000001      -43.479043845648675      -2.4118547884280226E-5
-13.535534259486118       -100                     -41.46446644762067       -2.5805243755297628E-5
-12.136511768061567       -102.73278444198631      -42.47335690951178       -2.437196062972234E-5
-10.000001000000013       -100.00000000000001      -40                      -2.641457761096683E-5
-11.336029865471088       -103.52783203125004      -37.77120543920098       -2.6368426752800225E-5
-14.999999999999998       -99.99999999999999       -44.999999999999986      -2.407713895482739E-5
-12.192697914054785       -100.00000000000001      -36.09265225660737       -2.86168413296034E-5
-18.109722242861643       -103.11565505366046      -44.03660739976943       -2.3953861259631317E-5
-18.995941275858492       -100.00000000000001      -43.047667254915545      -2.5400840879125093E-5
-134.64700983908597       -182.61989355454878      -102.78558122063731      -7.256084540117267E-7
-178.20130483767352       -199.99999999999994      -90.79809994790938       0
-143.87701793779797       -200.00000000000003      -88.59845679736435       0
-190.21130325903064       -199.99999999999994      -61.803398874989504      0
-154.8573230090539        -200.00000000000003      -65.51879064558695       0
-184.25964631147357       -174.99826084011198      -77.7713491021639        0
-163.26610795639863       -162.00682693926984      -85.38452808157142       -9.019038842079817E-7
-177.64188926566598       -147.03220515540067      -91.88775314548094       0
-148.89032664713127       -176.981448723139        -78.8813030176619        -1.1100831487810718E-6
-122.4376999292454        -125.06700399997312      -132.67492347046434      -1.8168460069711941E-6
-129.6008746185531        -116.75600533329751      -152.32732288760957      0
-138.28791633072484       -138.75642361880503      -115.63377936166245      -1.6131903772163765E-6
-151.3108435395824        -116.79744876074682      -130.78619433005912      0
-121.92924064563394       -65.36060944361807       -158.53472892580692      0
-79.24763874516262        -32.31070337506479       -183.62955032705435      0
-103.26458076660602       -48.099035776810986      -171.27879716735836      0
-83.54476874320088        -43.251519265701006      -158.39253225417994      -3.882165554662147E-6
-54.00087172954534        -15.384615384615428      -192.5718199852958       0
-27.254687697172653       -3.060782877857156E-14   -198.13425246163155      0
158.11083126332662        -200.00000000000003      -65.76749257621596       0
190.21130325903064        -200                     -61.80339887498944       0
124.2985941762714         -159.65633766523985      -124.41354550469667      -1.219293882678135E-6
141.51765567345987        -144.3422524562143       -141.3249911823384       0
152.08119312000613        -172.46422493905405      -129.88960966603676      0
184.04857077545827        -173.36598890027557      -78.26955727172027       0
165.3612312409296         -173.0875504480888       -67.85726539618666       -9.253191055834827E-7
169.7821964760439         -172.61297590184452      -105.70716985980664      0
120.52218826158582        -130.58761730931212      -138.0361751086204       -1.4067525455110683E-6
138.64715293318503        -152.46450662618912      -111.13961710585704      -1.4252239042679098E-6
1.1304431992129413E-14    -15.384615384615424      -199.99999999999994      0
-13.365275685479034       2.726729857478011        -182.13895193920524      -3.4939195557218402E-6
1.318850399081765E-14     15.384615384615326       -199.99999999999991      0
-13.39673710298946        -15.666336787807829      -171.82378659233876      -5.2995086494250845E-6
21.832884948628774        -52.31872476982671       -179.5010671773945       -2.87991321215345E-6
8.20554110004245          -44.62641707751901       -180.43394094657864      -3.0508114144994472E-6
27.25468769717266         -30.769230769230802      -198.13425246163163      0
0.2620681631072975        -4.965577834829685       -183.0718257083894       -3.2876266606432104E-6
27.25468769717266         -3.3945565383581886E-14  -198.1342524616316       0
175.4321075365909         -176.57533673589643      -46.59092041616884       -7.713177460490596E-7
166.55006273024307        -200.00000000000003      -36.91020323966991       0
197.5376681190275         -199.99999999999997      -31.286893008046135      0
54.000871729545445        -46.15384615384618       -192.5718199852958       0
1.4019149504283819E-15    -77.1049913917311        -99.99999999999999       -1.3356362643466221E-5
-13.6013784922034         -71.89635224143318       -120.05061273575107      -1.1372696448411183E-5
101.65756615471591        -79.96782336121842       -172.2374501770725       0
130.78619433005923        -116.79744876074678      -151.31084353958235      0
100.4904979266699         -123.01595643220698      -144.91626614385217      -2.1111892216402137E-6
120.70134501848617        -91.21573244781708       -159.4715815144766       0
98.24464323074812         -96.13946635417581       -143.8085380343993       -3.2157817482096665E-6
54.92047013907129         -91.12602798001733       -161.8963412782029       -3.3605378616281375E-6
73.42409940499424         -88.19336894130838       -155.43559311167547      -3.5095568822973068E-6
78.77028347142736         -62.90984922402875       -183.83482380069063      0
45.053021315571854        -52.761401396012594      -169.0223791013645       -3.949625520308034E-6
59.238560360283046        -70.4773851686605        -162.22898610651998      -3.864466372180441E-6
14.69825893797899         -86.0864371535538        -98.91390794115921       -1.2213296520729531E-5
14.169580952573519        -93.82010563401126       -111.10305424425015      -1.013403873617263E-5
8.084227512670672         -66.32390997077056       -111.8253240283614       -1.33531228550005E-5
4.702326946790331         -112.50000000000001      -88.21495297169383       -1.1553259101658724E-5
8.946283617292837         -119.25728395588288      -109.21599864942152      -8.188863450386855E-6
21.306583954826383        -99.99999999999997       -97.70364430356342       -1.0908423482430448E-5
9.416862612756326         -99.99999999999999       -81.32109605079218       -1.393383428561067E-5
161.60806913459874        -157.47482072726567      -87.2360380501632        -1.0451159655507766E-6
194.47360922251647        -171.8798326087571       -46.690634135423274      0
-189.64303833785027       -153.77303644871245      -63.52572715041229       0
-167.45683756392398       -169.25641437593885      -62.788144350304286      -1.0820115646030224E-6
-194.07295880748842       -178.52797810350344      -48.32894225727368       0
-15.970112718814775       -64.9108781314338        -98.7165411658469        -1.569227452404202E-5
-37.75647355838703        -5.905497199795699       -167.1157910326982       -5.947780154668501E-6
-60.96255380843765        -23.35620197831159       -161.73938252095027      -5.441887774577646E-6
10.000000000000012        -99.99999999999997       39.99999999999999        -4.551040448342025E-5
12.061349613609526        -103.03722660527214      40.473494186894605       -4.4169518791475996E-5
11.83143551173501         -100.00000000000001      36.79280699229442        -4.674986410879494E-5
13.535533904079793        -99.99999999999999       41.464466093129396       -4.587416935740778E-5
-113.77140094871356       -94.78426912668834       -132.62499034879298      -3.4190920115788335E-6
-140.89686444781512       -86.76716708877727       -141.9439100094611       0
-109.82675428860998       -61.75915725100207       -142.83254544139595      -3.5446488587099317E-6
-42.827306795324105       -99.99999999999997       -90.36487434240662       -1.1680955556504901E-5
-46.71440532535893        -110.83508836003799      -103.65867013849893      -9.166406162351995E-6
-31.938240545610306       -119.18719880506795      -82.75551267552432       -1.1408918150460972E-5
-25.35212269820676        -100.00000000000001      -77.36732914363694       -1.4692581539817762E-5
-32.78302931374363        -79.34769804102524       -94.47366293848367       -1.403393809675367E-5
-32.26159470328034        -71.03070938413411       -110.31577891954112      -1.295257355673644E-5
-171.61615708382283       -112.79455219465055      -102.70294361789556      0
-52.516766527718616       -76.05751220986785       -101.67258452261582      -1.3463927348317838E-5
-153.05243008069357       -139.43322504802074      -88.70610102583029       -2.129023877103453E-6
-169.8290367551059        -139.12263390996208      -71.64718188371629       -1.581436669677178E-6
-185.7544381537472        -124.28237037364617      -74.13021452947308       0
-165.54126163002073       -199.99999999999997      -39.74598396096967       0
-197.5376681190275        -199.99999999999994      -31.286893008046178      0
-198.7320590425143        -180.44024107148357      -22.4848550967669        0
-199.99999999999994       -199.99999999999997      -1.2246467991473527E-14  0
-168.842086820882         -199.99999999999997      -15.473816709411436      0
-166.87806829282178       -184.05214674763462      -51.45214569872578       -7.026030252034664E-7
-173.23734410378165       -178.11593350211996      -35.740217715244256      -9.471748805165553E-7
-183.11212318307898       -178.2476895511634       7.432340998507581        -8.258326234611853E-7
-197.88546101786318       -154.05827164706295      -29.005935905392636      0
-182.5302079268512        -165.8810802738997       -16.80946083302378       -1.1673554617671691E-6
-199.99999999999991       -169.23076923076925      -1.0362395992785295E-14  0
-199.0492915303187        -178.79149020159036      19.477667757670083       0
-171.0184871432981        -199.99999999999997      12.85282521264628        0
-197.5376681190275        -199.99999999999997      31.286893008046157       0
-102.79349256264959       -18.589021347914496      -171.56193600788163      0
-62.11621001378459        3.855342388216433        -162.40779547305763      -5.915591282168545E-6
-79.73953582692656        -2.8295262146650512E-14  -183.4164835179932       0
-159.4715815144766        -91.21573244781708       -120.70134501848615      0
-137.4669227595167        -81.29455786982889       -122.91840782656607      -2.6314258254365852E-6
-17.262323978872878       -43.100710173401666      -98.49879273802512       -1.9716280893994888E-5
-28.668146589394677       -43.17753829129007       -106.93194394197127      -1.77849613936482E-5
-11.324019683036012       -49.10398006846289       -120.97389762618785      -1.3885180215301548E-5
-23.35383947465998        -31.05107656293676       -119.81500250911894      -1.620308949980191E-5
-17.935148391839224       -20.49845912451457       -98.37850604762558       -2.369296004904474E-5
-127.87561243091103       -100.85809838290585      -116.07099573682022      -3.7825861159721432E-6
-141.97982391310853       -106.93192763912336      -99.51700112484744       -3.7593464656355073E-6
-150.60089383465206       -88.09115393498416       -97.33155326674394       -3.7368281773424033E-6
-128.3258575374421        -33.55395086251548       -153.40298004693423      0
-140.84872815994146       -56.89202752805904       -141.99167502261142      0
-119.39532771940777       -64.85228022406913       -127.45716641629392      -4.79448855480631E-6
-135.88585607630992       -63.272188834059456      -115.74998589575227      -4.475048139981925E-6
-157.01748734646497       -64.992876916273         -123.87699006434846      0
-79.81140929904126        -19.82376740423826       -151.8729307885256       -6.2307992791132264E-6
-97.50660858429792        -43.50287719669296       -141.33806610399353      -5.763119145874118E-6
-97.79855457700674        -14.86357175457606       -149.924341235891        -4.918573089669614E-6
-122.74844303213388       -0.9192186114338967      -157.90129743984673      0
-88.32200653230196        4.160231403986756        -163.3712807124403       -3.3681467161680624E-6
-53.999933294570745       15.54518202749754        -192.5720831381898       0
-34.042622724201564       19.076459213189683       -170.78756675147966      -5.727738105222821E-6
-54.33346825472091        26.014147215546256       -172.42819048833618      -4.40449733334178E-6
-28.170624307664784       30.69639146905195        -198.00610072953907      0
-11.154773118978085       17.466576544424083       -169.3624993614393       -6.600117230334842E-6
27.254687697172663        30.76923076923076        -198.1342524616316       0
13.590142332782884        35.3721712310735         -175.50959664782107      -5.313148144731642E-6
1.507257598950588E-14     46.153846153846125       -199.99999999999986      0
-11.780226818886243       32.112933841769426       -172.75844232651772      -5.9699269351346395E-6
10.837326082691645        -100.00000000000001      44.089956528774806       -4.401638786004E-5
173.02665058995717        -155.16490602595076      -71.81567918369723       -9.160262604419319E-7
187.57931075297043        -150.08624474609226      -69.38301072626165       0
168.9402161370832         -162.54168172607146      -48.81872574212437       -1.618096655338106E-6
152.3273228876095         -116.75600533329742      -129.60087461855318      0
136.23013846885573        -132.80215189715784      -114.63392936362015      -1.991340962658132E-6
161.89394797084432        -143.6969007828513       -117.43231927545983      0
177.8529504173191         -147.68280311431917      -91.47856594773785       0
144.870962161827          -143.7827708927203       -89.23212159720424       -2.5213478745606737E-6
125.81678561807445        -112.71974559480786      -120.28812306346524      -3.0342032322605685E-6