% Model:              example_comsol.mph
% Version:            COMSOL 6.0.0.318
% Date:               Sep 13 2023, 17:27
% Dimension:          3
% Nodes:              15481
% Expressions:        1
% Description:        Electric potential
% Length unit:        µm
% x                       y                        z                        V (V)
22.484855096766893        -180.44024107148363      -198.7320590425143       0
1.884071998688236E-15     -169.23076923076925      -199.99999999999991      0
7.498798913309287E-31     -199.99999999999997      -199.99999999999994      0
11.195453087153558        -175.05355489532818      -173.62457793259432      2.003176196651716E-6
15.15841988368085         -158.78641977941433      -178.88365764770433      2.704413281679826E-6
-19.477667757670094       -178.7914902015904       -199.0492915303187       0
-9.083381947850496        -171.15302905667804      -179.46557290393207      1.8136144411024927E-6
-21.94316529547773        -153.43474910373456      -198.79259920031058      0
-16.534591927140582       -144.13496871181462      -182.09430375469614      3.2433061953089862E-6
-23.503204023092355       -177.61379559899575      -177.737943048267        1.413481578365112E-6
-46.690634135423636       -171.8798326087572       -194.47360922251636      0
-31.286893008046164       -199.99999999999991      -197.53766811902747      0
-11.881160228758091       -199.99999999999994      -170.82097804615927      0
-36.66723284380137        -199.99999999999994      -165.37779263407617      0
-61.803398874989455       -199.99999999999994      -190.21130325903064      0
31.286893008046164        -199.99999999999997      -197.5376681190275       0
16.974321352132083        -199.99999999999994      -169.01488480933696      0
61.803398874989504        -199.99999999999997      -190.21130325903064      0
48.32894225727372         -178.52797810350347      -194.07295880748842      0
41.720530640103284        -199.99999999999997      -166.45610294175611      0
3.76814399737647E-15      -138.4615384615385       -199.99999999999997      0
31.474288122157606        -178.9540807339783       -167.78358296125654      1.8815847580521782E-6
30.240112013775104        -166.5061761905206       -182.83452198955982      1.5274241634368645E-6
29.005935905392594        -154.05827164706295      -197.88546101786318      0
2.609930000951933         -142.33933622355593      -177.75419975904674      4.400450232392393E-6
-25.636776573243026       -123.86177410567147      -198.3500836574908       0
-48.445656065669574       -138.8530511784379       -194.04385691994176      0
-5.5630092794017125       -121.26374800610118      -182.69800415454083      5.171430843992472E-6
-9.913675580289075        -101.97107326723088      -58.09220751531485       3.7459565480633966E-5
-11.483189310132158       -100.00000000000001      -56.34133941560883       3.796006915325303E-5
-10.000000000000012       -99.99999999999997       -59.99999999999999       3.8532264913233084E-5
-13.535533906870606       -99.99999999999997       -58.53553390407976       3.9254985859349425E-5
-32.16018046977566        -132.93557459145163      -175.0131972776425       5.28251990581742E-6
-33.71010531777148        -152.87220199280216      -170.33500993487377      4.07374243788493E-6
-56.47773384459954        -173.4389735539022       -169.14123645478733      1.7422451220519894E-6
-58.46173085478558        -144.42464008826616      -176.9545212316599       2.4966252973373594E-6
-69.38301072626186        -150.0862447460924       -187.57931075297037      0
-85.98600170679114        -173.80554520044603      -156.79553008155102      1.6239019589390181E-6
-90.79809994790935        -199.99999999999994      -178.20130483767355      0
-78.26955727172079        -173.36598890027577      -184.0485707754581       0
-64.79495393020767        -200.00000000000003      -157.95489927293204      0
-73.72204004931956        -125.59665138173312      -185.91681153399364      0
-107.05724765932807       -183.0153492791411       -148.0986384497642       8.157691485509122E-7
-117.55705045849459       -199.99999999999994      -161.80339887498945      0
-86.53092469798686        -200.00000000000003      -145.86549718172154      0
-105.70716985980684       -172.61297590184483      -169.78219647604377      0
-129.8896096660367        -172.46422493905402      -152.08119312000616      0
-141.42135623730948       -199.99999999999994      -141.4213562373095       0
56.038746065336035        -184.18907803224053      -163.0977383508687       1.298244948136453E-6
5.652215996064705E-15     -107.69230769230772      -199.99999999999994      0
89.9975846186291          -200.00000000000003      -146.4680798257371       0
90.48489609599557         -176.67162529173956      -155.68581169396572      1.3389044205083436E-6
117.55705045849463        -199.99999999999997      -161.80339887498948      0
90.79809994790938         -199.99999999999997      -178.20130483767355      0
68.6006167343139          -200.00000000000003      -155.8721521489927       0
77.7713491021639          -174.99826084011204      -184.25964631147357      0
59.78223660787414         -168.98105724047653      -176.3703883443595       1.2880960071719475E-6
63.52572715041223         -153.7730364487125       -189.6430383378503       0
104.49971294318972        -172.46422493905405      -170.52803287081844      0
28.25369079376119         -121.4293010247121       -197.99426495868641      0
21.754451929044446        -140.54370373529719      -173.4140957633974       5.195582408505711E-6
50.634219191174644        -129.87279693429207      -193.48430387734317      0
60.052234710828124        -141.0952659208014       -176.1533596334616       2.7417166414758907E-6
45.97425489218313         -157.90816146795657      -166.55228111317604      3.6613766430913155E-6
44.992743780513216        -130.96985756081997      -169.71838932151329      6.054521885553293E-6
74.13021452947312         -124.28237037364627      -185.75443815374717      0
42.09157261409666         -115.20413138595593      -180.33075284246186      4.888332750693508E-6
14.284061926668807        -114.52536040699962      -173.97382943940266      8.689271211549757E-6
27.643049091024157        -91.69845951605423       -198.08044284318228      0
6.813671924293167         -88.50701707870203       -174.5335631154079       1.3386179654411141E-5
12.13891378984756         -102.35490990166574      -58.77961174665751       3.7827477385835515E-5
13.53553390407976         -99.99999999999996       -58.535533906870555      3.936526963899877E-5
10.000000000000012        -99.99999999999997       -59.99999999999999       3.850602276308802E-5
10.837326082691657        -100.00000000000001      -55.91004347122518       3.776831038854786E-5
12.712413655498523        -100.00000000000001      -64.60134918224983       3.933497302828535E-5
14.27782757969511         -104.70981980333144      -57.559223493315024      3.7245680813845485E-5
16.463918347547423        -104.46503403773936      -61.460188161362694      3.729782590599424E-5
14.999999999999998        -99.99999999999997       -54.999999999999986      3.98955769720226E-5
12.091736811842791        -104.95460556892354      -53.65825882526735       3.711170938031985E-5
17.37275549164157         -103.12500000000001      -55.35728937755009       3.8915597078019475E-5
16.76572634766029         -103.12500000000001      -51.9543515662755        3.933913356418843E-5
-12.030419427775644       -103.94214653446174      -60.34546497867026       3.717650451055767E-5
-14.999999999999998       -99.99999999999997       -54.999999999999986      4.0006990936852895E-5
-15.735768986773564       -104.31482326723088      -57.87115688674026       3.766808409464591E-5
-11.827333963454636       -103.01190382111544      -55.35719801312294       3.7573290991451076E-5
-67.77353580320587        -128.53693025086986      -169.26212787808194      4.489048049254074E-6
-91.47856594773798        -147.68280311431909      -177.852950417319        0
-51.42445712297977        -109.23861952747893      -193.27577502006505      0
-27.25468769717266        -92.30769230769232       -198.1342524616316       0
-23.562940979575966       -106.15580872802359      -170.91016234061792      1.0872891407725422E-5
-14.022028491531147       -100.00000000000001      -62.77834554785762       3.9627651683090546E-5
-17.869038836108675       -100.00000000000001      -59.230125153636024      4.0592977356588504E-5
-68.47780564390159        -149.99622899809438      -159.865185543378        4.2176351308955E-6
-94.01800540394976        -156.85675083630068      -156.123414220929        2.3231678070593773E-6
-76.31940178352761        -95.59057976198459       -184.8657591643311       0
-116.23712469985105       -174.1275681941194       -132.53567204683722      1.6852776000785255E-6
-152.08119312000613       -172.46422493905402      -129.88960966603673      0
-110.12202267179954       -200.00000000000003      -129.47878464137193      0
-161.80339887498943       -199.99999999999994      -117.55705045849463      0
-127.70367354217875       -200.00000000000003      -111.26789457059358      0
-15.439877956776462       -85.92838091151862       -170.34980832649998      1.5986980925103842E-5
-101.18725558881252       -114.12279423312906      -172.5141713205159       0
-77.08534075162616        -112.64922041347351      -161.56973452450404      7.115350747669509E-6
-87.23571649813076        -139.87210011544178      -158.58096091251247      3.76781253757239E-6
-117.43231927545979       -143.69690078285112      -161.89394797084438      0
-118.94121802125001       -155.18647550724836      -137.95576684899936      2.3152138630535844E-6
-141.32499118233847       -144.34225245621434      -141.51765567345984      0
-125.41700174037405       -165.23978710909762      -116.97270564391025      2.6751017752151453E-6
129.8896096660368         -172.46422493905405      -152.08119312000608      0
121.80582051843625        -176.5401405869088       -134.42785215585602      1.1778468216402685E-6
141.4213562373095         -199.99999999999997      -141.42135623730948      0
112.04370484614574        -200.00000000000003      -128.7021074471577       0
109.95003541935775        -166.84816870429054      -137.6874739035363       2.2393868472631087E-6
7.53628799475294E-15      -76.92307692307693       -199.99999999999997      0
-27.254687697172653       -61.538461538461576      -198.1342524616316       0
-24.35099474470987        -52.21667532489341       -181.58979898549387      1.4511030740886655E-5
9.420359993441178E-15     -46.153846153846175      -199.99999999999994      0
-27.254687697172653       -30.769230769230802      -198.1342524616316       0
-12.873757574312467       -30.075946581865324      -182.24004335218982      1.9269281809642392E-5
130.88809569626292        -200.00000000000003      -110.15308551216701      0
161.80339887498948        -199.99999999999997      -117.55705045849459      0
134.76762431472397        -176.23225331309462      -110.64635130901203      1.5458103350280865E-6
13.346147540993929        -109.90921113784708      -51.40647417930954       3.5305548063439726E-5
91.88775314548093         -147.0322051554006       -177.64188926566598      0
90.52960951636531         -154.2636435172946       -148.83744866901878      3.6311172416549983E-6
70.35696149056879         -168.3781560644811       -159.73937375998128      2.4313649010089343E-6
105.52589888897558        -142.42563041330337      -143.4368118888196       3.954220322786325E-6
118.24503467000584        -144.13484457096152      -161.30130742151195      0
75.44206799571593         -123.89923647567332      -156.97739200774416      7.1582965342524235E-6
52.148372687090195        -106.04330824452246      -193.08171126776435      0
102.70294361789566        -112.79455219465058      -171.61615708382277      0
88.89597702568607         -109.32464397707744      -156.7170632852655       6.9735500517575335E-6
78.0949397111956          -94.13281303499986       -184.1227318706322       0
55.92945443443214         -108.97896174719976      -162.66724072623725      1.036329293488587E-5
36.416840873148345        -94.05868701872626       -168.35708944473038      1.3359668359538189E-5
53.75082366532281         -76.94852978245562       -192.6417632687662       0
27.25468769717266         -61.538461538461576      -198.13425246163163      0
25.933346619932514        -70.63420923735731       -171.7779711083862       1.8114244595987304E-5
19.74551098328314         -106.25000000000001      -55.71457875510019       3.7226539709929145E-5
20.068328778103417        -100.00000000000001      -58.57660525668179       4.093284524821547E-5
13.535534260423972        -99.99999999999999       -41.464466449473605      4.3731141964611994E-5
11.564067529734922        -100.00000000000001      -43.449310480207735      4.103434980918203E-5
13.85644039720623         -105.00550989708658      -41.20377019347487       4.0376614403537556E-5
10.000001000000026        -100.00000000000001      -40                      4.3883296199343474E-5
13.45300165907447         -100.00000000000001      -37.361912549733454      4.628111849864744E-5
14.999999999999998        -99.99999999999997       -44.999999999999986      4.2429504381264365E-5
17.530701100445686        -100.00000000000001      -40.642708194101175      4.529215525542815E-5
19.762322413513445        -100.00000000000001      -52.493023030277634      4.218181705002684E-5
161.782246344776          -183.6334191701061       -86.89580505024892       5.849796569871702E-7
178.20130483767358        -200                     -90.79809994790934       0
146.4342898363889         -200.00000000000003      -87.20053440310261       0
-54.96490093252066        -103.04653278222544      -165.5500203083761       1.0513864851230432E-5
-52.09512535716122        -78.81449862054318       -193.09608466776754      0
-77.1621837461092         -64.09446042298504       -184.51557495109097      0
-62.14403285263056        -84.35688509336225       -163.16794981616343      1.4000663336051523E-5
-41.21415102826619        -58.90356529682571       -175.56784570150327      1.5639686355493288E-5
-39.902844547045014       -86.12129262021891       -173.14834175903158      1.2069429683760297E-5
-52.93043557502767        -47.68368915880879       -192.86878697663295      0
-37.72408676089621        -29.139752247970335      -178.80858274732597      1.932009621292996E-5
-59.80889760309071        -50.56774634483961       -161.0709695688429       2.5174236800298472E-5
-106.29687083353829       -124.408701224931        -145.81814714765773      5.101289213049875E-6
-81.0057520248278         -90.07847992647986       -156.02283814390978      1.1951063835614533E-5
-119.28630094011729       -91.8983600739811        -160.53279542829796      0
-99.86747119702503        -95.8000747595975        -148.8777264716562       9.038271645188093E-6
-99.7416553503282         -81.01071186920285       -173.35397944084335      0
-83.06990438261225        -67.84839687196926       -161.89796838029747      1.2279407399276765E-5
-10.939176515587542       -113.52005724438463      -93.52712755561714       2.957584221823697E-5
3.7493994566546434E-31    -99.99999999999999       -99.99999999999997       3.627552554170394E-5
-21.76172009261235        -99.99999999999997       -97.60327088828568       3.606862436142183E-5
-7.790980538212644        -100.00000000000001      -80.7839966728375        3.6731917908449076E-5
-13.47556130914829        -110.20605569840885      -110.97203834765907      2.946866826642999E-5
-12.783309837508613       -93.83889145402688       -117.25018606664348      3.854837052754398E-5
-13.785149185229242       -84.59987854404194       -99.04529096297799       5.223373733719776E-5
-33.61341516981289        -90.82867646144746       -107.09273036162223      4.235878136932757E-5
-143.90964874303828       -166.84816870429054      -109.49916437357301      1.601262161190432E-6
-170.52803287081838       -172.46422493905402      -104.4997129431898       0
-161.30130742151195       -144.13484457096138      -118.2450346700058       0
-11.57572532284653        -100.00000000000001      -43.479043845648675      4.1042811608004576E-5
-13.535534259486118       -100                     -41.46446644762067       4.388601710107049E-5
-12.136511768061567       -102.73278444198631      -42.47335690951178       4.102472078034778E-5
-10.000001000000013       -100.00000000000001      -40                      4.395155199472106E-5
-11.336029865471088       -103.52783203125004      -37.77120543920098       4.257986483341883E-5
-14.999999999999998       -99.99999999999999       -44.999999999999986      4.240257405534025E-5
-12.192697914054785       -100.00000000000001      -36.09265225660737       4.677367407963479E-5
-18.109722242861643       -103.11565505366046      -44.03660739976943       4.153324363901243E-5
-18.995941275858492       -100.00000000000001      -43.047667254915545      4.469579472501213E-5
-134.64700983908597       -182.61989355454878      -102.78558122063731      1.3185950048396193E-6
-178.20130483767352       -199.99999999999994      -90.79809994790938       0
-143.87701793779797       -200.00000000000003      -88.59845679736435       0
-190.21130325903064       -199.99999999999994      -61.803398874989504      0
-154.8573230090539        -200.00000000000003      -65.51879064558695       0
-184.25964631147357       -174.99826084011198      -77.7713491021639        0
-163.26610795639863       -162.00682693926984      -85.38452808157142       1.356643215513308E-6
-177.64188926566598       -147.03220515540067      -91.88775314548094       0
-148.89032664713127       -176.981448723139        -78.8813030176619        1.6195825876851044E-6
-122.4376999292454        -125.06700399997312      -132.67492347046434      4.811214374058264E-6
-129.6008746185531        -116.75600533329751      -152.32732288760957      0
-138.28791633072484       -138.75642361880503      -115.63377936166245      3.4855828467493543E-6
-151.3108435395824        -116.79744876074682      -130.78619433005912      0
-121.92924064563394       -65.36060944361807       -158.53472892580692      0
-79.24763874516262        -32.31070337506479       -183.62955032705435      0
-103.26458076660602       -48.099035776810986      -171.27879716735836      0
-83.54476874320088        -43.251519265701006      -158.39253225417994      1.9643813864807163E-5
-54.00087172954534        -15.384615384615428      -192.5718199852958       0
-27.254687697172653       -3.060782877857156E-14   -198.13425246163155      0
158.11083126332662        -200.00000000000003      -65.76749257621596       0
190.21130325903064        -200                     -61.80339887498944       0
124.2985941762714         -159.65633766523985      -124.41354550469667      2.700291062537875E-6
141.51765567345987        -144.3422524562143       -141.3249911823384       0
152.08119312000613        -172.46422493905405      -129.88960966603676      0
184.04857077545827        -173.36598890027557      -78.26955727172027       0
165.3612312409296         -173.0875504480888       -67.85726539618666       1.1643001185684686E-6
169.7821964760439         -172.61297590184452      -105.70716985980664      0
120.52218826158582        -130.58761730931212      -138.0361751086204       3.737989712609421E-6
138.64715293318503        -152.46450662618912      -111.13961710585704      2.8537207139316104E-6
1.1304431992129413E-14    -15.384615384615424      -199.99999999999994      0
-13.365275685479034       2.726729857478011        -182.13895193920524      2.5326068034117014E-5
1.318850399081765E-14     15.384615384615326       -199.99999999999991      0
-13.39673710298946        -15.666336787807829      -171.82378659233876      3.639689662534633E-5
21.832884948628774        -52.31872476982671       -179.5010671773945       1.6644475217900525E-5
8.20554110004245          -44.62641707751901       -180.43394094657864      1.8478939961903778E-5
27.25468769717266         -30.769230769230802      -198.13425246163163      0
0.2620681631072975        -4.965577834829685       -183.0718257083894       2.3410365648211742E-5
27.25468769717266         -3.3945565383581886E-14  -198.1342524616316       0
175.4321075365909         -176.57533673589643      -46.59092041616884       7.551237820272805E-7
166.55006273024307        -200.00000000000003      -36.91020323966991       0
197.5376681190275         -199.99999999999997      -31.286893008046135      0
54.000871729545445        -46.15384615384618       -192.5718199852958       0
1.4019149504283819E-15    -77.1049913917311        -99.99999999999999       6.118596348802053E-5
-13.6013784922034         -71.89635224143318       -120.05061273575107      5.598761338265063E-5
101.65756615471591        -79.96782336121842       -172.2374501770725       0
130.78619433005923        -116.79744876074678      -151.31084353958235      0
100.4904979266699         -123.01595643220698      -144.91626614385217      6.395182873809733E-6
120.70134501848617        -91.21573244781708       -159.4715815144766       0
98.24464323074812         -96.13946635417581       -143.8085380343993       1.1224272448370525E-5
54.92047013907129         -91.12602798001733       -161.8963412782029       1.4531919578187062E-5
73.42409940499424         -88.19336894130838       -155.43559311167547      1.4435392534012E-5
78.77028347142736         -62.90984922402875       -183.83482380069063      0
45.053021315571854        -52.761401396012594      -169.0223791013645       2.1779713610401805E-5
59.238560360283046        -70.4773851686605        -162.22898610651998      1.8573688086517692E-5
14.69825893797899         -86.0864371535538        -98.91390794115921       5.046390102331711E-5
14.169580952573519        -93.82010563401126       -111.10305424425015      4.025609458500952E-5
8.084227512670672         -66.32390997077056       -111.8253240283614       6.796857411718109E-5
4.702326946790331         -112.50000000000001      -88.21495297169383       3.0447804930513737E-5
8.946283617292837         -119.25728395588288      -109.21599864942152      2.5281042988011484E-5
21.306583954826383        -99.99999999999997       -97.70364430356342       3.626720901246263E-5
9.416862612756326         -99.99999999999999       -81.32109605079218       3.669377441929634E-5
161.60806913459874        -157.47482072726567      -87.2360380501632        1.6092863045278733E-6
194.47360922251647        -171.8798326087571       -46.690634135423274      0
-189.64303833785027       -153.77303644871245      -63.52572715041229       0
-167.45683756392398       -169.25641437593885      -62.788144350304286      1.3027312622591965E-6
-194.07295880748842       -178.52797810350344      -48.32894225727368       0
-15.970112718814775       -64.9108781314338        -98.7165411658469        7.792627060737426E-5
-37.75647355838703        -5.905497199795699       -167.1157910326982       4.0853773464474546E-5
-60.96255380843765        -23.35620197831159       -161.73938252095027      3.2745960935985805E-5
10.000000000000012        -99.99999999999997       39.99999999999999        1.3817675512185902E-5
12.061349613609526        -103.03722660527214      40.473494186894605       1.2134416024843814E-5
11.83143551173501         -100.00000000000001      36.79280699229442        1.6894931134059547E-5
13.535533904079793        -99.99999999999999       41.464466093129396       1.2086458899344783E-5
-113.77140094871356       -94.78426912668834       -132.62499034879298      1.0847928677674215E-5
-140.89686444781512       -86.76716708877727       -141.9439100094611       0
-109.82675428860998       -61.75915725100207       -142.83254544139595      1.4045433745239724E-5
-42.827306795324105       -99.99999999999997       -90.36487434240662       3.541468088717545E-5
-46.71440532535893        -110.83508836003799      -103.65867013849893      2.8113153835193614E-5
-31.938240545610306       -119.18719880506795      -82.75551267552432       2.7172284824581235E-5
-25.35212269820676        -100.00000000000001      -77.36732914363694       3.680324174582526E-5
-32.78302931374363        -79.34769804102524       -94.47366293848367       5.810580202698566E-5
-32.26159470328034        -71.03070938413411       -110.31577891954112      6.0380816768914785E-5
-171.61615708382283       -112.79455219465055      -102.70294361789556      0
-52.516766527718616       -76.05751220986785       -101.67258452261582      5.427457834173635E-5
-153.05243008069357       -139.43322504802074      -88.70610102583029       3.6227265498130827E-6
-169.8290367551059        -139.12263390996208      -71.64718188371629       2.190217807686227E-6
-185.7544381537472        -124.28237037364617      -74.13021452947308       0
-165.54126163002073       -199.99999999999997      -39.74598396096967       0
-197.5376681190275        -199.99999999999994      -31.286893008046178      0
-198.7320590425143        -180.44024107148357      -22.4848550967669        0
-199.99999999999994       -199.99999999999997      -1.2246467991473527E-14  0
-168.842086820882         -199.99999999999997      -15.473816709411436      0
-166.87806829282178       -184.05214674763462      -51.45214569872578       7.429860600922792E-7
-173.23734410378165       -178.11593350211996      -35.740217715244256      8.260925347173136E-7
-183.11212318307898       -178.2476895511634       7.432340998507581        3.641164815465306E-7
-197.88546101786318       -154.05827164706295      -29.005935905392636      0
-182.5302079268512        -165.8810802738997       -16.80946083302378       7.82225077376452E-7
-199.99999999999991       -169.23076923076925      -1.0362395992785295E-14  0
-199.0492915303187        -178.79149020159036      19.477667757670083       0
-171.0184871432981        -199.99999999999997      12.85282521264628        0
-197.5376681190275        -199.99999999999997      31.286893008046157       0
-102.79349256264959       -18.589021347914496      -171.56193600788163      0
-62.11621001378459        3.855342388216433        -162.40779547305763      3.895670097013444E-5
-79.73953582692656        -2.8295262146650512E-14  -183.4164835179932       0
-159.4715815144766        -91.21573244781708       -120.70134501848615      0
-137.4669227595167        -81.29455786982889       -122.91840782656607      7.639136077769081E-6
-17.262323978872878       -43.100710173401666      -98.49879273802512       1.155758939116161E-4
-28.668146589394677       -43.17753829129007       -106.93194394197127      1.020086551038638E-4
-11.324019683036012       -49.10398006846289       -120.97389762618785      8.063978543119275E-5
-23.35383947465998        -31.05107656293676       -119.81500250911894      1.0358041074977251E-4
-17.935148391839224       -20.49845912451457       -98.37850604762558       1.6620230932691083E-4
-127.87561243091103       -100.85809838290585      -116.07099573682022      1.0064356960324964E-5
-141.97982391310853       -106.93192763912336      -99.51700112484744       8.219889048369492E-6
-150.60089383465206       -88.09115393498416       -97.33155326674394       8.389761576035202E-6
-128.3258575374421        -33.55395086251548       -153.40298004693423      0
-140.84872815994146       -56.89202752805904       -141.99167502261142      0
-119.39532771940777       -64.85228022406913       -127.45716641629392      1.6801776108403016E-5
-135.88585607630992       -63.272188834059456      -115.74998589575227      1.3645040138575148E-5
-157.01748734646497       -64.992876916273         -123.87699006434846      0
-79.81140929904126        -19.82376740423826       -151.8729307885256       3.4942808623440944E-5
-97.50660858429792        -43.50287719669296       -141.33806610399353      2.623621240288063E-5
-97.79855457700674        -14.86357175457606       -149.924341235891        2.5775639976380775E-5
-122.74844303213388       -0.9192186114338967      -157.90129743984673      0
-88.32200653230196        4.160231403986756        -163.3712807124403       2.0065510507347806E-5
-53.999933294570745       15.54518202749754        -192.5720831381898       0
-34.042622724201564       19.076459213189683       -170.78756675147966      4.204889242183017E-5
-54.33346825472091        26.014147215546256       -172.42819048833618      3.1036712155704984E-5
-28.170624307664784       30.69639146905195        -198.00610072953907      0
-11.154773118978085       17.466576544424083       -169.3624993614393       4.9894639132627424E-5
27.254687697172663        30.76923076923076        -198.1342524616316       0
13.590142332782884        35.3721712310735         -175.50959664782107      4.047098739521359E-5
1.507257598950588E-14     46.153846153846125       -199.99999999999986      0
-11.780226818886243       32.112933841769426       -172.75844232651772      4.567472659462439E-5
10.837326082691645        -100.00000000000001      44.089956528774806       9.086456894467719E-6
173.02665058995717        -155.16490602595076      -71.81567918369723       1.204352903957522E-6
187.57931075297043        -150.08624474609226      -69.38301072626165       0
168.9402161370832         -162.54168172607146      -48.81872574212437       1.6917779011194025E-6
152.3273228876095         -116.75600533329742      -129.60087461855318      0
136.23013846885573        -132.80215189715784      -114.63392936362015      4.396074272938618E-6
161.89394797084432        -143.6969007828513       -117.43231927545983      0
177.8529504173191         -147.68280311431917      -91.47856594773785       0
144.870962161827          -143.7827708927203       -89.23212159720424       4.357969099046398E-6
125.81678561807445        -112.71974559480786      -120.28812306346524      7.848803188939615E-6
2.804525544666008E-15     -54.198622057908786      -99.99999999999996       9.486137643637632E-5
-7.714798229389132        -24.33745898583905       -123.76693059727327      1.0942100017895944E-4