% Model:              mesh_convergence.mph
% Version:            COMSOL 6.0.0.318
% Date:               May 8 2023, 17:25
% Table:              A - Volume Integration 2
% mesh                   OK (m^3)                 if(ec.normJ>5,1,0) (m^3) OK (m^3)                 if(ec.normJ>5,1,0) (m^3) OK (m^3)                 if(ec.normJ>5,1,0) (m^3) OK (m^3)                 if(ec.normJ>5,1,0) (m^3) OK (m^3)                 if(ec.normJ>5,1,0) (m^3) OK (m^3)                 if(ec.normJ>5,1,0) (m^3) OK (m^3)                 if(ec.normJ>5,1,0) (m^3) OK (m^3)                 if(ec.normJ>5,1,0) (m^3) OK (m^3)                 if(ec.normJ>5,1,0) (m^3) OK (m^3)                 if(ec.normJ>5,1,0) (m^3) OK (m^3)                 if(ec.normJ>5,1,0) (m^3) OK (m^3)                 if(ec.normJ>5,1,0) (m^3) OK (m^3)                 if(ec.normJ>5,1,0) (m^3) OK (m^3)                 if(ec.normJ>5,1,0) (m^3) OK (m^3)                 if(ec.normJ>5,1,0) (m^3) OK (m^3)                 if(ec.normJ>5,1,0) (m^3) OK (m^3)                 if(ec.normJ>5,1,0) (m^3)
1                        1.923198086138596E-11    8.339761917490941E-12    1.9443516385930692E-11   8.298070377448626E-12    1.8883855841474303E-11   8.345313158299374E-12    6.421139196430575E-12    1.5265183916379767E-11   1.9136460174817598E-11   8.29797212845218E-12     1.9409994786480096E-11   8.291569526012497E-12    1.8919854374386825E-11   8.340371120695597E-12    1.9455323471441255E-11   8.291108163672671E-12    6.421139196430575E-12    1.5265183916379767E-11   8.952508661253583E-12    1.664316742682403E-11    5.701954372933758E-12    1.3069998788050453E-11   9.425334005787306E-12    1.718810532419131E-11    7.074479568774564E-12    1.5332314745381092E-11   9.30685890990951E-12     1.6712816956668632E-11   5.663471768004533E-12    1.3051643958479093E-11   9.18542443602761E-12     1.7078374312639574E-11   1.943436467852561E-11    8.287995008360926E-12
2                        1.926319832814266E-11    8.32451643991309E-12     1.939107757059189E-11    8.297312958260078E-12    1.890741649113908E-11    8.329029940045729E-12    6.421388229976383E-12    1.5245915368915645E-11   1.9158784759110573E-11   8.29046247733457E-12     1.942608293123686E-11    8.28797556474826E-12     1.8959775470168547E-11   8.328576925557362E-12    1.947299062327437E-11    8.28934838714939E-12     6.421388229976383E-12    1.5245915368915645E-11   8.858494756554868E-12    1.6500059140906614E-11   5.68925747772424E-12     1.305998690455583E-11    9.27127914253648E-12     1.713508109170924E-11    7.082265509560008E-12    1.5314163329501855E-11   9.279169419115328E-12    1.657118766235685E-11    5.68012724986797E-12     1.3050270799747436E-11   9.176771963010152E-12    1.6971883660784106E-11   1.944663453449505E-11    8.282266135679989E-12
4                        1.9271279364064903E-11   8.336904350668724E-12    1.9420847629602436E-11   8.296618040064057E-12    1.8947908891319232E-11   8.33460729326307E-12     6.384168377686862E-12    1.5302118434361955E-11   1.9116085950134183E-11   8.290811017493816E-12    1.9349537300174045E-11   8.292073752823721E-12    1.892153978793828E-11    8.334364127052366E-12    1.9473398375738362E-11   8.293035909563227E-12    6.384168377686862E-12    1.5302118434361955E-11   8.931884983323064E-12    1.6489100372238837E-11   5.699308878852218E-12    1.304784685244581E-11    9.314807755802896E-12    1.713407845702409E-11    7.088842627153856E-12    1.5318274273456176E-11   9.243261902871226E-12    1.655904419016714E-11    5.675540372633448E-12    1.3033324948995132E-11   9.184109814045031E-12    1.7021244387952238E-11   1.946283867519685E-11    8.28773232398927E-12
8                        1.928258930518095E-11    8.337230456501826E-12    1.9395533289787973E-11   8.292640820338168E-12    1.8951221619064804E-11   8.322876852875538E-12    6.44721797855392E-12     1.5258201419687018E-11   1.918031726036225E-11    8.282287694793265E-12    1.9404811697526033E-11   8.283624708962077E-12    1.8935288708338387E-11   8.327337364611567E-12    1.9481756980828054E-11   8.285436629377263E-12    6.44721797855392E-12     1.5258201419687018E-11   8.91363689267387E-12     1.648194059308228E-11    5.7313098687959985E-12   1.3063013690673926E-11   9.390475899908594E-12    1.71338480821009E-11     7.073735540135154E-12    1.534986401420714E-11    9.331090213358378E-12    1.6561587934696648E-11   5.675917440324778E-12    1.3030584441981018E-11   9.148263411444423E-12    1.7034825501850217E-11   1.9453965278402094E-11   8.27889303807563E-12
16                       1.9295205445372364E-11   8.342890986405056E-12    1.947789939306464E-11    8.287166813540994E-12    1.8776529041803416E-11   8.333059265322688E-12    6.383659588155282E-12    1.5279682556528976E-11   1.91860337353937E-11     8.287705464960109E-12    1.9432873583258552E-11   8.283035804384946E-12    1.895814644991477E-11    8.3283591865519E-12      1.9445084558560546E-11   8.292238062924766E-12    6.383659588155282E-12    1.5279682556528976E-11   8.916673203994496E-12    1.6492230724701727E-11   5.6689022523228826E-12   1.3078759999577768E-11   9.395282548121038E-12    1.7131893620157365E-11   7.087869693085346E-12    1.5351211896330448E-11   9.298202900184002E-12    1.6544586895769407E-11   5.661726771795086E-12    1.3043727116861018E-11   9.221199712472027E-12    1.7037095074957905E-11   1.9456856635568112E-11   8.27826178261537E-12
