% Model:              mesh_convergence.mph
% Version:            COMSOL 6.0.0.318
% Date:               May 8 2023, 17:26
% Table:              V - Global Evaluation 3
% mesh                   Terminal voltage (V)     Terminal voltage (V)     Terminal voltage (V)     Terminal voltage (V)     Terminal voltage (V)     Terminal voltage (V)     Terminal voltage (V)     Terminal voltage (V)
1                        -0.04663403477392727     -0.046851236254723885    -0.04649357861586337     -0.0469985182900826      -0.046732530227780227    -0.04692795775656158     -0.04648510453228235     -0.046939723712571886
2                        -0.047304052084596995    -0.04757557076204072     -0.04712397634647013     -0.04760673342493136     -0.04734535942869304     -0.047557959000906314    -0.04717589511615338     -0.047561376051970104
4                        -0.04755099626374554     -0.04778665616700868     -0.04735628623373096     -0.04787201981775199     -0.04756265342372131     -0.04785318770211452     -0.04736850041534833     -0.04779776273339511
8                        -0.04765827795062084     -0.047912585676227026    -0.0474649812814456      -0.04797395809006935     -0.04768943090373785     -0.047924138421408885    -0.04745774129306681     -0.047907586052920025
16                       -0.04770353410814151     -0.047919354136388155    -0.047499268280151635    -0.047997962163725705    -0.04770279288893721     -0.04797106672445391     -0.0475116800315562      -0.04794805465169789
