% Model:              ex_vivo_config_full_model.mph
% Version:            COMSOL 6.1.0.346
% Date:               Nov 24 2023, 14:29
% Dimension:          3
% Nodes:              47269
% Expressions:        1
% Description:        Electric potential
% Length unit:        µm
% x                       y                        z                        V (V)
-239.907687566204         849.9999999999999        815.4410633295633        0.02558642171879155
-269.55263863015          809.4726119521157        919.6955736597724        0.02047386240274784
-411.13784827678194       993.0645753865819        870.4657302102008        0.01324332248521372
-454.8589349076834        849.9999999999997        718.0537626743395        0.024095056780881988
-360.79019076164326       671.8678464239563        769.6300658434394        0.03240200851600252
-188.13288510113108       684.8076449285693        828.9185831814391        0.033131194616179534
-580.8654907773085        736.3401440071202        884.3121813056852        0.015913813301760175
4.898587196589411E-14     849.9999999999999        850                      0.025441210950322663
164.24507567121555        831.3044812474848        1023.3919972695226       0.015309633057702393
-38.615122291010074       704.7438588609072        1023.041380662645        0.01938500717510494
153.1135359648438         692.0313111902834        836.0958348803932        0.030708793754843484
228.70570367780846        849.9999999999997        818.6517845218211        0.02375969717650161
308.59510919924764        602.3296806228211        1014.8981892918458       0.017244536552931282
-411.82856898042854       843.7183358915859        1649.362673814201        0
6.404252109725526E-14     695.8937408213402        1699.9999999999998       0
-277.43513809215403       898.6365181610443        1220.9208263472597       0.007297443709349789
9.797174393178822E-14     1249.9999999999998       1700                     0
-652.8062049457336        1249.9999999999998       1569.6608865137653       0
163.03821687062688        759.4364526981278        1429.1602096565314       0.004488689853721879
475.6417650376215         879.2937509009151        1632.1044425378834       0
488.1521637881505         567.9403153370257        1628.4064188613809       0
405.48317981945956        778.3587570441467        1206.583083127347        0.007711968943094031
-717.3946591163169        901.1072933119748        1075.8002183903438       0.005917655817116171
-641.2633435203143        1249.9999999999995       955.1022337591631        0
-1202.080736583376        1249.9999999999995       1202.082319450363        0
-211.8826830040923        1249.999999999999        1119.079948373197        0
-164.90754529340168       1012.8152292595007       873.4703563622252        0.016098949018240445
175.7079690488487         949.9999999999994        690.588878039298         0.03362739229514485
80.73917351809189         849.9999999999995        648.7441564243578        0.05680692508874717
-95.89577026219979        849.9999999999998        655.8539411520666        0.057225563533364825
-39.660653675194915       971.7935555793922        707.8589469153293        0.03372157223431438
891.4623452784382         743.8798844735649        1447.5133460354227       0
652.8078435022458         1249.999999999999        1569.6602050855001       0
593.3872602883897         965.402862007362         1061.3338931884655       0.0057982554198633
335.3245946012976         677.423763187378         781.0617237168107        0.02844308256361714
424.6227863669299         814.179378522073         965.7733923412328        0.013666704708423887
-218.1726577134213        1049.9999999999998       707.3324256372456        0.02203139458132231
-268.8644584423654        849.9999999999997        596.962948042043         0.05745163782783513
308.7553984036775         303.7225530137571        1671.7266833895383       0
3.344169398812758E-14     596.1443088964263        849.9999999999999        0.035787968344198236
-103.47852271772085       523.8069507396056        1049.7097844155685       0.019518587447596117
-291.76994950531264       630.1279617677332        991.8778094033837        0.020111452322459127
-560.8195983786298        714.8131686610171        1344.3274350447236       0.004352407771775109
-829.1662199818909        756.6950393489819        1484.0766084137776       0
-451.2066964492614        456.1012861447817        1639.027918334322        0
-227.7132029703359        515.3086863566892        1279.8846893404684       0.009066281181477582
154.37769920183877        449.9334309550917        1260.8633416947691       0.0095997640856886
3.392922283453301E-14     204.1062591786606        1699.9999999999995       0
-415.9996127613383        62.16003443955372        1648.3156015103464       0
-632.8657527043645        1026.185318383161        704.5882329854411        0.011392601982705532
-648.6726662664873        849.9999999999997        549.2913270920074        0.021142468884044863
-409.69890298600995       1049.9999999999998       596.9019550964556        0.02185587465060844
-413.4976247838696        849.9999999999997        479.62257050319397       0.0553840764750473
-553.2679989637469        680.6449816590821        645.2863870582204        0.028590232515355245
-779.3499343200428        735.597341562659         758.6473206321537        0.013388804836430849
-236.69945061099918       461.16239615783735       816.3782028450115        0.036223326730372866
-449.6255480531512        527.350306993065         721.3437921947502        0.03439849542358822
-471.7857486289664        541.9213420860391        933.4744013910212        0.019284534325848316
-645.724959979455         555.67291234687          833.8175956986571        0.017529412847742645
-893.1315961154254        989.4392578925936        825.0542028257198        0.005414003669003099
-1346.9657615751821       659.4825470652901        1037.1515015388          0
-1569.6602050735626       1249.999999999999        652.8078435309508        0
-1130.8554053317841       795.946886526039         589.97272365747          0.006351352624865581
-706.8720466469335        622.6802880142408        1050.5705999370307       0.009187286584936309
-1678.8032320661662       927.5353476409507        267.61858680628484       0
-1612.0069622105034       586.9673386155762        539.845861135254         0
565.9319644479232         333.8289005535885        1142.2187289036638       0.008055703793860733
732.5874275061393         162.23579639043908       1534.0520398799827       0
211.70703857903575        426.30060420149556       823.2132954563444        0.032726953932655886
177.29575087359953        344.56261381142076       1043.4735674118635       0.01692285830140875
399.276501389707          505.4220047167379        750.3854179273442        0.030450083295090306
559.5147361473347         688.7186770176296        816.96127203684          0.017372809170908218
482.6042329188151         419.6254526351632        946.3020734155041        0.015824660526998605
252.487865244159          849.9999999999995        603.8541440149103        0.05110267582402277
443.7623929144002         849.9999999999994        724.9637015551183        0.020956829147175185
235.2698122311368         1049.9999999999995       973.9306373521255        0.009085227509054024
339.51610257276855        949.9999999999994        849.4471694536219        0.015959889368991134
98.92807285353838         1049.9999999999995       777.3236120636859        0.018612301737001572
241.8339207844651         1249.999999999999        1129.2094901824298       0
814.2423152638623         820.2315915847164        886.5200505223263        0.0075204559107325
1202.082319474134         1249.9999999999995       1202.0807365596052       0
659.8752843276085         1249.9999999999989       959.5740688588389        0
-533.7285338852649        849.9999999999998        323.7125475800075        0.0489384440939511
-554.4234654594436        1046.5132370273682       450.03922715127396       0.020341479206912833
-794.6379610750646        849.9999999999997        301.7420744405794        0.018803374907752426
-825.3352817488916        926.1853183831611        557.008292657503         0.011995174500759346
-1215.833271698894        1249.9999999999995       251.68017170759683       0
-1700                     1249.9999999999998       9.797174393178822E-14    0
-1206.282840398439        911.2856975480182        155.0301519998063        0.005668072659355666
-988.4365300863486        1249.9999999999995       607.5921359988074        0
964.4217543055153         438.892837315557         856.6927202328553        0.0068317402918010766
1393.7580516912344        205.4007657362553        973.3645223377794        0
1461.2858789174222        787.1272580222785        868.7022390189502        0
1012.2293520215982        828.8371388455622        621.857046254473         0.0068782154762342404
543.4606407089976         575.525600602612         653.5675420338476        0.026453965761208304
646.9456672443514         849.9999999999998        551.324315738886         0.01790276911408533
653.41047578598           1049.9999999999993       755.4491922988624        0.007548275883605488
844.837957197166          525.2643247217458        601.0747312159162        0.013709712111943738
-1650.367820861548        844.1986188551872        -407.7818728986168       0
-1569.6608864723469       1249.9999999999989       -652.806205045326        0
-1151.823956640091        1249.9999999999995       -143.6034068458243       0
-850                      849.9999999999999        4.898587196589411E-14    0.017304920104493034
-839.3294944246763        1015.6061021425495       -25.921629578973175      0.01337330241077741
-1231.0034811052517       582.2193131382883        269.922930567627         0.0074092820433216515
-1449.7815723382791       712.9404281627646        -202.52527356044214      0.003172950052008272
-1700                     695.8937408213416        6.404252109725535E-14    0
-823.1381081038797        654.937960601699         211.9991862889224        0.022090585356224882
-1039.5777097296254       676.1150273411178        85.58689190098328        0.012916034549845716
-1400.2690825543193       379.2693240604811        359.6917259383951        0.003702050893653739
310.44459081165695        10.114807611468619       1671.4138195060439       0
199.0314708973125         49.966715477545876       1230.611983144414        0.006306443041549474
652.8078433822525         -350.00000000000006      1569.660205135402        0
200.21380254536027        239.19179666774977       826.0837931289583        0.024707620979331678
1.819281032428332E-14     347.11113991315483       849.9999999999997        0.03204613110117526
-201.16214623858298       256.2643805444521        825.8533713200466        0.027634288370967767
-103.99990319033455       201.59557856646586       1049.5789003775865       0.014815679765113113
-558.5759993090786        229.50390399872765       1128.9857946617951       0.008400827884965566
-379.86907277383074       242.88414227158984       977.4195829909207        0.015765906303836247
-915.9898523795742        202.74342745300314       1432.1182180035437       0
-999.7814015648163        175.08337339725415       1015.4798791870883       0.003940335848211447
-1440.9868038205536       120.66284279578065       901.9739637123814        0
-207.99980638066916       56.080017219776856       1249.1578007551732       0.0062671513227580125
-6.373979076312894E-30    -350.00000000000006      1700                     0
-652.8062048986582        -349.99999999999994      1569.6608865333421       0
-584.5778733119764        488.6655366794993        617.0645914602836        0.030780029711750354
-726.6465151522368        609.0558393741934        441.004356006956         0.025860569536082696
-978.824998128744         595.6375762562408        355.4636432872916        0.01431281278723162
-917.7230727904911        456.95645823400207       810.1402782360315        0.009859050031842028
-462.0306048437262        294.0000472048343        713.4617860738865        0.02769547063875109
-730.9060032042713        234.54171030104425       864.4708326304873        0.01145312397250057
-816.1613940475429        461.8024141117461        237.44594935768268       0.023804812452570462
-1128.5740989340482       291.23262845376337       569.7099565350321        0.007214646060806877
-1699.9999999999998       204.10625917865846       3.3929222834532886E-14   0
-1651.7226852005983       24.32855923794886        402.25883606668583       0
-1202.0807367173059       -349.9999999999999       1202.0823193164338       0
-1030.5303638614103       -29.383685773118295      600.1717288315297        0.005140355657820843
-1569.660205135402        -349.9999999999998       652.8078433822525        0
-1040.5017405526255       455.7590864632803        134.9614652838135        0.013541032808477663
243.68524259278612        -350                     1200.3606245940582       0
803.4158773273475         20.231591584716906       911.7356032916007        0.005318491312284525
1202.0823193164338        -350.00000000000006      1202.0807367173059       0
602.077186451251          -8.085549723205725       1076.1119516505253       0.0050708545679388995
638.222408454579          -350                     1010.0051743973876       0
463.85693425318544        322.70551324971075       712.2757503560231        0.024911375661411026
446.1679430695247         191.91445027679424       963.5244157356822        0.012584404051955935
716.2331402266508         356.58434820957217       762.8708912709183        0.013851521913548485
326.40392169112624        49.99999999999993        784.830102567701         0.014766526039716196
-849.9999999999998        577.4712876610002        3.2298301203808824E-14   0.02257795167760846
-1636.5635660972748       467.847760519426         -460.06488034077154      0
1569.6608864980155        1249.999999999999        652.8062049836044        0
522.1518806328205         1049.9999999999998       527.7817019814873        0.016780228941338033
402.95625697841143        849.9999999999998        499.20176871083135       0.04643128902844252
1016.0641164057029        1249.999999999999        649.6744337883687        0
-538.1410366321138        1049.9999999999998       78.58394423435473        0.03027219047248341
-591.2333602598028        849.9999999999998        111.14354095945696       0.04729382622471489
1012.8915599011805        -350.00000000000006      719.8034525184116        0
1321.1258667814493        128.65430098071903       591.9891411880137        0.002482007543479777
1569.6608865333421        -350.0000000000001       652.8062048986582        0
1646.9873637433298        53.81567245036547        421.2275200764966        0
1636.5877006481412        467.85643227382127       459.9790191815587        0
720.9573276566088         332.8943327394395        450.2449685429487        0.0199022686462377
1071.5600522610125        294.85420711461296       404.1905422395455        0.00832664910093678
1450.1868017626666        710.4575495964872        201.7374478459178        0.002594211893066217
1699.9999999999995        695.8937408213417        6.404252109725535E-14    0
1699.9999999999995        204.10625917865832       3.3929222834532886E-14   0
1650.4230986282978        844.2200272841615        407.55808851520237       0
1200.373603525334         725.0213583716323        403.4748956918356        0.005745735842062207
1202.1376184128628        1249.999999999999        277.171673192064         0
750.32410842237           605.822689459103         399.39170286846877       0.020522056211904543
835.0494300432474         980.6566187445432        573.6204235752093        0.008319357394988208
1306.0601121016853        457.64331084698125       44.1917034218198         0.00524827287328593
795.7694911263361         849.9999999999998        298.7453371580576        0.015577621984365082
1007.0430176240452        921.8825328947069        385.1703390266757        0.007238333052004125
682.4036885359066         1005.0654344122016       287.81061670259635       0.017265374822622317
508.1113767992939         849.9999999999997        305.34673526350895       0.04607747521730017
-1170.0850793379036       1003.0752980195515       -601.7043484422163       0.003459055046416403
-1461.2767284679014       787.0879603279251        -868.7176312462786       0
-1202.082319400695        1249.9999999999989       -1202.0807366330432      0
-969.0739143088384        1249.9999999999998       -627.3660307226171       0
-825.6030941042449        655.9932009374854        -202.1868714963889       0.021919248614660568
-1017.9497199854911       792.8729003909355        -169.50230109399635      0.011953710455612701
-1170.9406208981693       741.2947711509661        -423.64517555863284      0.007197588214844108
-1009.9541838770344       598.5748599396317        -313.8061288028302       0.01350222849944497
-797.2458405971535        849.9999999999995        -294.78310057621394      0.018354769430452018
-595.3308502234131        849.9999999999998        -109.0161575070473       0.04666466059461537
-1188.5312028981352       171.57130950538593       179.537590741536         0.006968781017890502
-1700                     -349.99999999999983      0                        0
-1166.8357428917154       -29.383685773118295      399.076447726703         0.004368558654719195
-1194.0471737873468       450.7792125047868        -112.75647818967418      0.008829278118459518
-849.9999999999997        329.29885978827224       1.7102122732260644E-14   0.020681434894585383
-3.186989538156447E-30    49.99999999999995        850                      0.016258592558820013
121.84262129639308        -149.99999999999997      1025.1803122970293       0.005687018809972883
-326.4031024493291        49.99999999999996        784.8304432666711        0.01603300540954253
-659.9949016209059        -349.9999999999999       1016.2242255564909       0
-214.4091915882486        -349.99999999999994      1136.6320445055135       0
-693.061432873267         293.90427861351145       492.10349548001955       0.023238658619862834
-601.0403683586529        49.999999999999986       601.0411596582169        0.014669795236408295
-825.8511420221053        244.85242218882448       201.1712982032572        0.01881978251823445
-784.830102567701         50.00000000000003        326.40392169112624       0.013187510803706866
-1646.9766137244449       53.81998111401678        -421.2695501039201       0
-1248.4883068622223       51.90999055700843        -210.63477505196005      0.004727499485117918
-1569.6608865333421       -349.9999999999998       -652.8062048986582       0
-1205.097386849382        -349.9999999999999       228.44293891837387       0
-932.4866287887717        -349.9999999999999       630.6335011280273        0
-1099.906301721335        -349.9999999999998       -288.25824650667795      0
168.50330409283694        -350                     808.5536391730345        0
95.79083369605985         49.99999999999996        556.7979490199992        0.034652481711031836
601.0411596582169         49.99999999999992        601.0403683586529        0.012651514778896512
618.6787273465683         -350                     476.87271606978373       0
937.4879647941801         157.5428993496649        657.9630727655732        0.00765449078412295
309.3172877970675         49.99999999999994        467.30288105407806       0.031325788583772794
-820.3452230775106        467.16260437507566       -222.56171048477597      0.023706842652612577
-1103.2047434113922       400.1657835130951        -476.129670068559        0.009220980212825422
-1393.7350035840282       205.33625799537026       -973.3975240284051       0
-1321.1116552231254       128.62312427618934       -592.0161495401826       0.002955726606692003
1700                      1249.9999999999998       9.797174393178822E-14    0
1235.1019551075847        109.85052875574371       264.9607391218548        0.004501334817599916
784.8304432666711         49.99999999999993        326.4031024493291        0.011255296592793982
826.7586122972192         259.45530751664785       197.4087054624899        0.015963326893423637
1700                      -350.00000000000006      0                        0
1119.0340734228428        -349.99999999999994      329.4643281690937        0
1678.803237682195         927.5353850798047        -267.618551576261        0
1159.288778290539         1249.9999999999995       -131.42822667003728      0
1264.4016188410976        750.2411277452378        -133.80927578813046      0.005214414773854771
1612.0067220724557        586.9659537146514        -539.8465781990435       0
1651.7224135715805        24.328785814349335       -402.2599514061399       0
1277.087151331206         99.51257755754122        -360.5299088073983       0.003706979501190282
1441.9777417676082        120.80425563491511       -900.3889116636146       0
1569.660205135402         -350.00000000000006      -652.8078433822525       0
1264.7639812191578        468.1215741015223        -268.6155694609753       0.005610458492645131
821.9942377405762         461.0541132485068        216.39194329107713       0.019509812477371404
1058.2605795570657        497.19710132678506       219.27381445893934       0.010405401178699848
825.5205948651401         648.838863332677         202.5234491447968        0.018014912212002524
1001.140596901961         1007.9587841578883       123.7177032975031        0.006667821928494157
849.9999999999998         327.05312958932944       1.696461141726646E-14    0.017154306082855144
1047.2748478493752        240.4612830351668        -10.930992892961795      0.009535194347202992
850                       849.9999999999999        4.898587196589411E-14    0.01456128061463244
609.6806390532965         849.9999999999997        114.29509461322792       0.03709818471953385
1044.961106853119         699.5399955389572        34.3570866783332         0.010438790571534072
89.31109545097975         599.6893570869955        -1439.577000138101       0.005038265030089175
6.404252109725521E-14     695.893740821339         -1699.9999999999995      0
411.9669096146702         843.4974001622024        -1649.328125444581       0
453.0335417526084         455.7264552602138        -1638.5239119546245      0
-978.9260805747107        776.9955677553871        -791.2798962127815       0.00748842065355914
-891.4623527345863        743.9004803421486        -1447.5133414434958      0
-638.880681535621         1249.9999999999995       -951.2153552917038       0
-724.6702122712065        857.3780732220905        -1042.0426770579493      0.007000874893790724
-652.8078435477538        1249.999999999999        -1569.6602050665747      0
-748.7584684915688        615.7756121531884        -402.31922134315187      0.024815992472476456
-893.781709868435         802.0586171559717        -482.3453114587362       0.013562132425294476
-847.4334768891862        576.4127467418471        -563.6331994537486       0.01686695047113736
-523.8279095167009        849.9999999999998        -299.2916858184669       0.052112263847303844
-660.6144341260921        849.9999999999998        -534.870216667298        0.02082622564258564
-514.8431115619182        1026.2421436817617       -410.3103369424883       0.027077335120302228
-859.9156900539507        987.2366729410228        -367.53594801797544      0.011428125454678329
-850                      50.00000000000005        0                        0.012483403344959454
-825.9596180069111        258.59146597304044       -200.72545783202804      0.019345703136540465
-1049.244153431111        190.60442517264033       -105.31738752598001      0.010539394375339552
-375.8168746319616        -349.9999999999999       542.3865980917741        0
-115.075371094091         49.999999999999964       565.4719809434495        0.034130755559051144
-326.0152052765269        49.99999999999998        481.37590703328107       0.03279130009937726
-593.4928365928477        -155.17915628735793      212.64379112570055       0.012111104571712114
-494.1550190909075        50.00000000000001        299.45067369956706       0.030196410300237883
-601.0761288484833        50.00000000000003        113.9062054758557        0.025720915085129973
-1011.8118558941907       -349.9999999999998       -714.8803187476058       0
-1202.0823193164338       -349.9999999999997       -1202.0807367173059      0
-784.8304432666711        50.00000000000006        -326.4031024493291       0.013104445327945849
-653.7095625158767        -349.9999999999999       46.17159378483416        0
-1052.9710492448983       89.31156213809469        -459.2096259947558       0.0074036268884477546
606.8514077477498         -152.14232693264898      298.04628404073384       0.009753589424080836
481.5976307991357         49.99999999999994        303.45922748489454       0.02783352695198325
-310.4247957233124        10.112146957972454       -1671.4174960793425      0
-308.74884773173557       303.7228439609748        -1671.7278932363138      0
-732.5874620326882        162.2077536230645        -1534.0520233918094      0
-354.08624747602363       25.689919900184158       -1265.1785983810446      0.005001909251860047
-652.8078433822525        -349.9999999999998       -1569.660205135402       0
-716.0812978965193        330.8688199953294        -457.9602327744586       0.023894577962468026
-869.1211340973875        301.3048758189628        -847.5818610096327       0.009524713155812771
-475.643914717655         879.296446721191         -1632.103816058299       0
-372.60607147239597       848.7136126647162        -1253.6355451020715      0.006663166423137294
9.797174393178824E-14     1249.9999999999998       -1700                    0
-488.1619777507627        567.9403843693241        -1628.4034768688202      0
-224.52178331685036       1249.9999999999995       -1128.5445911208085      0
-429.52311074737435       350.3642238841409        -1346.1471357011826      0.005558281409196831
1116.2985760175052        1004.3769114383091       -395.6601004337726       0.004092947012922758
1569.6602050955976        1249.9999999999995       -652.8078434779659       0
-236.83311266633063       -349.99999999999983      -1204.1869266029069      0
850                       49.99999999999995        0                        0.010551202801367843
750.4484450295491         -350                     79.31072621589006        0
610.7090906327717         49.99999999999994        116.91948166803073       0.021784928388064676
1082.100469106152         -350                     -208.0327843083426       0
829.4282946254333         253.40583051517135       -185.87281693336672      0.015750988910226527
1040.861026474269         105.47526009775622       -263.9581965123858       0.007514029937889519
1044.4115939171493        427.1659490491788        -121.25173899888925      0.011042186190341231
661.5814190958898         -349.9999999999999       -1042.5789966657064      0
652.8062048986582         -349.99999999999983      -1569.6608865333421      0
920.5431913803039         201.80810476141374       -1429.1956593844538      0
1202.0807367173059        -349.9999999999999       -1202.0823193164338      0
6.373979076312894E-30     -349.99999999999983      -1700                    0
-169.15426444435437       469.2679286292148        -1291.991356286204       0.008871813829749768
97.71059634942459         337.6342121983023        -1436.1413410425412      0.004865945709119342
3.392922283453311E-14     204.10625917866219       -1699.9999999999995      0
415.8947437351537         62.06688730376135        -1648.342064661783       0
527.1834516957857         126.32507031907377       -1281.190071221835       0.004334507551312774
912.1510321587743         -349.9999999999999       -672.3040880534822       0
842.9871654017713         39.596759335339684       -878.3825570852023       0.005410657271471192
225.37323347994015        1249.9999999999995       -1125.0167405723846      0
272.9412961654954         834.4466760405143        -1310.0227938984915      0.005934442838096517
652.806204957878          1249.9999999999995       -1569.6608865087146      0
816.4601088088305         754.3210585118109        -1491.1045874531644      0
578.9351773188761         903.5196256422435        -1037.1491356957717      0.007498245075521186
1202.0807367193318        1249.9999999999989       -1202.082319314407       0
646.2515489679654         1249.9999999999995       -976.8542174572938       0
511.6188056697866         557.0392512844874        -1097.4440539342493      0.010553070151784158
817.2541565322381         267.3298024878734        -945.2240451462084       0.007397913697871154
1343.3463093681264        667.5076457532367        -1041.83525238256        0
1032.4106689450389        394.5331570859733        -645.8326629629898       0.007768421393378551
1073.308373744471         758.7538228766181        -659.8919741975077       0.006084718058598241
849.9999999999998         572.9468704106706        3.2021260548627667E-14   0.018459997145361923
824.0351458723995         461.46971465013775       -208.48519939567205      0.01952584585758497
959.0672347281985         370.79482448412466       -375.1549717204764       0.011981357119514348
1001.6613783198121        659.3365427050701        -308.20938302788295      0.011135413478650096
948.4820718150829         938.9129767355174        -155.09185671668223      0.00955853796750449
803.2704381208152         849.9999999999995        -277.94869601245534      0.015205840756427743
635.9753459844604         849.9999999999995        -86.87354601007412       0.03398570122998738
648.8592741596681         1004.8042359095107       -6.574739365015582       0.022289145570994612
-560.92484745202          1003.9265526557599       -643.1011595917499       0.01662661232100169
-704.3254217949669        826.2745589388953        -751.2894356204641       0.014360951295903389