% Model:              ex_vivo_config_full_model_small.mph
% Version:            COMSOL 6.1.0.346
% Date:               Mar 13 2024, 15:06
% Dimension:          3
% Nodes:              10685
% Expressions:        1
% Description:        Electric potential
% Length unit:        µm
% x                       y                        z                        V (V)
-38.493143709941236       109.27140044161803       124.17035832808814       0
-35.22514014246097        138.1033430819502        125.13668327850144       0
7.276079587660738E-15     128.82739729898657       130                      0
-18.322464707417154       112.85953709799068       98.76847863670622        3.8086867033264494E-5
3.6296184461741E-15       109.27616760524226       65                       1.2309649697524186E-4
-14.304901448347488       114.8167206117156        63.40638607075052        1.1141014705847268E-4
-4.5727571549990325       95.04434970425665        79.5706155364094         9.238383187211171E-5
-11.692170442279197       120.35051884911269       76.76798119175405        7.230773636561128E-5
-16.329006373967857       100.54224217667026       62.91552710451466        1.4043557145178168E-4
2.7585734936506364E-15    95.05092399818892        65                       1.4682489685834287E-4
-30.05706237128858        105.44513099054547       78.5054396397226         7.468007375601773E-5
-72.71575203326418        127.52249182249977       107.76093636488521       0
-48.68176719742353        128.7612459112499        83.95318586445909        3.485075830789633E-5
-49.9204744931523         169.99999999999994       120.03289132276284       0
-18.401435269748756       139.63689201171505       90.18573975311797        3.058543364133491E-5
9.797174393178824E-15     169.99999999999997       130                      0
18.340714623174147        146.55329449311645       128.69972100634595       0
-24.647782361582884       130.00000000000003       60.14543536403299        8.233380454438492E-5
-31.493334322885516       121.78898326148276       73.67978596760481        6.703429594451692E-5
-52.69986750534241        169.99999999999997       76.88824407163881        0
-91.92382103847245        169.99999999999997       91.9239420699899         0
-78.46730940893524        128.745390664939         78.0825504651338         1.970059860061665E-5
4.898587196589412E-15     130                      65                       8.083712636967685E-5
-12.563605181198204       139.95358191320872       68.1345794769206         5.999594758802277E-5
-7.559341674163328        130                      45.02010022518351        1.645895992689616E-4
-16.746706763430726       82.93632006252498        106.84374634077948       3.147707164030863E-5
4.886029094821371E-15     89.79491063420433        130                      0
19.537314654515487        137.2820783236694        96.86043995283876        2.5907387418956112E-5
7.825959872430502         108.10333645127209       103.49515024592621       3.4915245852675614E-5
37.73978877264417         123.47692438264646       124.40140008615741       0
49.92059979828632         169.99999999999997       120.03283921198152       0
9.373973118196588         88.33195933721757        64.32051482986846        1.5276588151053088E-4
13.474855066116202        101.3870552830009        74.9078265191551         9.96988997785761E-5
1.9339661711533896E-15    81.5840644420888         65                       1.5089712495078267E-4
13.202429300050145        114.42163655821682       63.64507726900153        1.1355414101611533E-4
13.832867004675544        122.01915060039813       78.83468563368149        6.643545368688961E-5
13.537167512157838        99.62442791578226        63.5747205715273         1.4315103143651385E-4
26.61407534007482         98.5436987923066         70.4334814344847         1.07629265643233E-4
24.96029989914316         130                      60.01641960599076        8.420747732219433E-5
27.839658945492484        113.54280077410404       80.73130786374206        6.6162067498576E-5
-49.167533963292534       76.59711074833893        120.34348176768226       0
-27.570002680475255       86.2861696987998         92.61278369014275        5.2977425192427156E-5
-108.55977366384366       129.9365790147565        71.51765895256244        0
-8.551380220022244        75.52689481259154        73.90884700222243        1.094980026586721E-4
-14.578361768901216       85.25773984735301        63.34407129428167        1.5212095130662676E-4
-33.52381688125238        50.734482125826126       125.60315960083275       0
-96.15465618304239        92.30335262503957        87.48875410200392        0
2.510169126452512E-15     50.9941728210973         130                      0
-13.345433690999197       68.41679378518734        93.59213357891909        5.349898487870824E-5
4.715738264247293         73.14631933457126        78.05468518124137        9.631334403565169E-5
-29.647338221141283       79.24431423304571        74.31106442323419        9.497622509982156E-5
-35.89343350597989        63.29855537416945        90.64038821624142        4.669751203879525E-5
-11.670627371853339       67.13888801955586        63.94369755298287        1.3428780565708602E-4
1.0797277728596426E-15    67.63329269486337        65                       1.3470519290680353E-4
-7.350812554689074        60.0598258193771         79.371439281106          8.14698972716401E-5
13.378049613972793        77.93544386356147        63.60839400995817        1.509177301263445E-4
18.488091258690847        85.3290965646761         72.02225357078137        1.1509337706459239E-4
-120.03283921010483       169.99999999999994       49.92059980279904        0
-75.0818671054416         169.99999999999997       50.10113444755675        0
-84.21886678460629        129.96828950737824       48.404164565382416       3.820855514260318E-5
-125.09359669054358       135.06414785153575       35.37784712250907        0
-70.80369861109553        111.15167631251977       66.97715194049115        4.7966247571908044E-5
-48.373409760722915       92.27649519173139        84.54560041504503        5.2563483270754474E-5
-68.02970767397886        91.74406409433242        110.77887377019582       0
-33.08373928255481        110.58253018043692       55.95056921143822        1.254930843428595E-4
-28.71711184746697        92.80892628913034        58.31232705989423        1.5258220932507725E-4
-35.3467420559133         146.60179270400008       70.57351342195041        3.6575005462710126E-5
-45.4527410391487         130                      46.465549778978385       8.692044597026271E-5
-41.61102113524102        147.47050061125483       51.66482419487101        5.301016784327167E-5
-23.91981837204285        140.53792770765364       44.6351169202046         1.0728307677251926E-4
-25.463891188679238       130                      36.12848024529467        1.8012049661155372E-4
-92.65083375114995        101.32172220070233       30.21362501909112        6.167719354845791E-5
-122.67737595136454       89.79723089818175        43.014665286243584       0
-108.26493203990157       143.36590900072395       -8.429034535771624       1.97850990300697E-5
-96.24189941225391        136.6670992540511        19.987565014805398       3.448377296562833E-5
-130                      169.99999999999997       9.797174393178824E-15    0
-91.44244955972387        169.99999999999997       18.86177902109997        0
9.64562439500137          150                      78.31596476463918        3.12147838692503E-5
-17.556298684526904       169.99999999999997       85.78630034219186        0
19.291248790002737        169.99999999999997       91.63192952927831        0
6.869592781559881         144.850738961861         57.19997488484474        7.307944192670642E-5
9.88142556629267          130                      45.05341004989617        1.6394998075731825E-4
-86.52986407980312        169.99999999999997       -16.858069071543255      0
-120.03289131979079       169.99999999999997       -49.92047450029883       0
6.723355544116533         76.708517322868          97.03748268637824        5.0636346989811424E-5
41.19624376531396         79.15063683262122        123.29991686789101       0
23.143377086192125        91.4548013938282         87.53457277217412        6.644631607463342E-5
48.05090814180085         99.35005349547097        86.93419799979421        4.82545501536281E-5
48.031726484258066        136.55345803612508       79.15524445725974        3.49050727708457E-5
75.22240202431422         119.73185914170244       106.02636574782922       0
50.745545076817066        169.99999999999997       73.66937294757396        0
91.92394207336645         169.99999999999997       91.92382103509598        0
67.29376005213514         141.02276877084995       59.12068153587931        3.6411523332236895E-5
45.1846500456601          38.581541056518304       99.6434979862403         1.7904439157701696E-5
32.66068297374839         38.821023583041644       125.830361152181         0
70.31489282828585         43.41632043511584        109.34265337253656       0
49.92059979935747         9.99999999999999         120.03283921153609       0
91.92394207539473         9.999999999999988        91.92382103306765        0
23.867754507831503        88.4413641057035         60.45932760752379        1.5741487052412854E-4
31.40435408492393         140                      53.661349257328716       7.790764457745993E-5
45.961971036683224        130                      45.96191051754799        9.054171805607532E-5
54.712718928773405        105.48685630244462       66.04322394248437        7.802212754046694E-5
30.7892457407278          107.9773604439733        57.24528230969847        1.3355607025583536E-4
38.88486815614231         85.3849794264768         68.40366327425133        1.0502670256481299E-4
24.95578568186776         130                      40.47980223787508        1.622574888650167E-4
-74.32338231157911        53.49245222976774        106.65849634120501       0
-63.73630373700762        61.85129781040312        72.03860321448808        5.1541526252250544E-5
-78.21074728924064        84.74417489082364        55.69293270061232        6.244629414178103E-5
-32.41185516039647        72.82185816071798        56.342449760917226       1.4826713052486579E-4
-54.81751786642629        77.05147961461455        59.03183298241873        9.92446325191394E-5
1.255084563226256E-15     50.49708641054864        97.5                     3.901203135863513E-5
-4.874219293651037E-31    9.999999999999993        130                      0
-22.1153641393443         43.573182048816676       90.82062871388698        3.936308820212773E-5
-44.2307282786886         36.64927768708473        84.14125742777395        3.164086483647694E-5
-49.920474492233204       9.999999999999996        120.03289132314505       0
-108.59471984706185       49.38641158829684        71.46458438512146        0
-85.61779596738575        58.3366734691275         44.408713460733466       5.480923306214245E-5
-125.17764798086498       44.090894297175566       35.07928799132973        0
-91.92382103306765        10                       91.92394207539473        0
31.907818887828252        64.57531841631061        92.11859445139113        4.7936757873166435E-5
12.980366574447196        64.08658517247369        63.69073781636521        1.3070929255779953E-4
11.30969700517127         50.2485432052743         79.21863601744562        7.161695859302721E-5
22.642934250900524        71.25538113993603        77.86349423067463        8.886026682641864E-5
-22.619333048667247       49.99999999999998        60.937294664800575       1.1167014444622788E-4
-43.17781839283744        55.92564890520154        66.48794893964433        8.248827759317383E-5
-2.4371096468255186E-31   49.999999999999986       65                       1.109162478024298E-4
-11.05768206967215        46.78659102440833        77.91031435694349        7.029288021232857E-5
18.17518653586403         9.999999999999993        92.94703749359722        0
29.904992684671058        69.78971556242212        57.712142678380694       1.476336189348043E-4
64.78899018086777         67.62828846330832        71.5815986802437         5.6148789071850176E-5
57.70861711757182         38.34205852999496        73.45663482029961        3.782116067847267E-5
47.66056560792469         9.999999999999995        76.8069187925866         0
-53.42273465398179        110.69244372651008       37.02717140277196        1.3784329311116963E-4
-73.42157916777083        121.40725150530058       32.908374658660534       7.957871777205433E-5
-59.87795990536889        130                      25.29067017820238        9.791787619693822E-5
-60.51485635602614        137.6460133833311        57.39176032612043        4.621237826695521E-5
-129.99999999999997       116.73181800144793       6.535438964132553E-15    0
-124.78138724624328       133.888337278203         -36.46375456399238       0
-107.45367672057134       36.63409099927601        -9.647517978661162       2.6093708572521545E-5
-130                      63.26818199855203        3.2617354290462696E-15   0
-130                      10.000000000000005       0                        0
-45.898731995844955       92.25166141882598        46.025062750349385       1.6319743480979292E-4
-65.81674097161122        97.71830930866686        46.36005205169214        1.0236714880935532E-4
-37.393871848552635       130                      25.708785315390358       1.8338846969374832E-4
-62.62429155093535        112.84621350322293       17.41258475193865        1.5040256890825495E-4
-61.33865487647297        89.82799381033685        21.507427041488224       1.93939018397487E-4
-77.64585291942979        84.30432877533023        23.783233777718298       1.1758399935391166E-4
-96.3204360438548         65.27755867425509        8.676421268172742        6.796882613461601E-5
-77.08742065736931        169.99999999999997       -52.05417785231807       0
-91.92394207672257        170                      -91.92382103173988       0
-108.31442314694215       129.57105325881662       -71.88870382991452       0
-97.5                     96.68295450036199        4.083153339327844E-15    7.271596951678592E-5
-93.59695656103807        123.16666596447797       -27.310376797313907      5.875954444439722E-5
-85.3421886092037         146.583332982239         -39.68227732481599       3.644647918855849E-5
-78.22122477986194        150                      9.430889510549987        4.095975079730705E-5
-65                       130                      4.898587196589412E-15    1.1133835565710869E-4
-58.044865504461114       169.99999999999997       13.010026511669208       0
-81.25                    113.34147725018099       4.490870267958629E-15    1.0528812003151289E-4
90.76103123317664         83.36823411997982        93.07220427974364        0
75.89476203347323         122.123757972564         53.94897236567169        5.305278359123954E-5
84.44220843282534         145.00223172984835       39.785253259133384       3.0340034802171305E-5
78.33639068299826         169.99999999999997       52.93561273661268        0
108.30872899707482        129.57051115078946       71.89728244543187        0
120.03289132427953        169.99999999999997       49.92047448950527        0
77.53999564323101         9.999999999999993        55.42518262953859        0
104.9917719771067         46.78041452632279        76.65981879124968        0
120.03289132314505        9.99999999999999         49.920474492233204       0
45.357901801048726        88.52085148841388        46.55814369373441        1.7420185510489655E-4
55.33724248123397         82.34961321619507        50.76792350671166        1.2905957855309253E-4
82.46909958454636         90.3563391532228         46.07324359979232        7.193197475774015E-5
52.70164909102894         110.43841576860396       38.046500273823476       1.453933362973194E-4
124.78091584239445        133.88698821440772       36.46536770050832        0
88.37922782159879         169.99999999999997       24.598615158639074       0
130                       169.99999999999997       9.797174393178824E-15    0
60.016445662139766        129.99999999999997       24.960237244752634       1.0239532593698341E-4
36.57422759308064         130                      27.09540960739797        1.8727523564137313E-4
60.140722540466186        145.87574127889945       39.328469560982654       5.445076003942413E-5
81.55516325804493         123.63743311042893       27.684514749998296       7.095559808539669E-5
87.02471732949145         148.843740397607         6.285864987308212        3.602579441048591E-5
-69.11175671201845        35.92564890520155        61.13331300600077        3.703824799774773E-5
-53.14922516243613        70.2101433910385         37.41871008777113        1.6207907095078868E-4
-44.752243697811714       49.99999999999999        47.14055657822611        1.1976178600984885E-4
-65.18501983259873        54.16833673456375        45.774635019479796       8.695856076900349E-5
-17.48348627822578        9.999999999999996        86.1757583059928         0
-44.3845848966432         33.32463884354236        58.607976041782194       6.322037511980514E-5
-52.568023051397326       9.999999999999998        77.6421266393065         0
-62.64087208770962        67.28693534995816        17.35284253634548        1.7749359907688936E-4
-94.07212945673007        37.63877933712754        13.853469062306848       4.265045831627142E-5
-120.03283921153609       10.000000000000002       49.92059979935747        0
-81.59194308437428        36.78221412116454        37.49339103415382        4.5532325187616754E-5
-59.687096080834735       49.99999999999999        25.737913096476035       1.369877730856919E-4
-78.35650077221985        52.462857343542844       15.603155799326165       9.719086604949367E-5
-74.4872096870293         10                       50.22802279751346        0
-91.82382286960531        10.000000000000002       19.030516856440954       0
22.619394010342535        49.99999999999998        60.93727203489123        1.1463489458903889E-4
9.087593267932014         29.99999999999998        78.97351874679862        4.24570622107647E-5
43.80680490112144         54.06588704620853        65.58438874934015        8.42824357576391E-5
-22.846873069335487       39.999999999999986       45.01028888988468        1.7437338469048156E-4
-25.066097190023214       49.99999999999999        36.93718878668882        2.8322167867268663E-4
-6.184961622961718        29.999999999999982       61.349674822297416       7.900307034005911E-5
-7.400201301019884        49.99999999999999        45.642316206217615       2.5370247107339006E-4
1.644152037793353         39.999999999999986       53.45435018509774        1.522655449841029E-4
9.473265698548422         49.999999999999986       45.559025547898045       2.541652893885984E-4
82.33944773345361         48.39020726316138        51.19883416031687        4.763076867350864E-5
125.12072445831093        43.775385728210495       35.28178440821033        0
45.87984794423422         39.17102926499747        55.426750230535106       8.270795516871621E-5
44.75230602126122         49.99999999999999        47.14049741628154        1.248273643566504E-4
51.734024059052174        69.46666918096597        39.352137866416          1.6508059544905542E-4
34.05107877089662         39.99999999999999        37.396865640770606       1.883971537697597E-4
-41.77655047356612        130                      7.966044877031002        2.235551929032892E-4
-122.49072293416612       90.21358168920955        -43.54334386637468       0
-125.12043761429081       43.775430980868684       -35.282801634909376      0
-120.03289132314505       10.00000000000001        -49.920474492233204      0
-91.92394207539473        10.00000000000001        -91.92382103306765       0
-77.55437410055745        10.000000000000007       -53.844822307911755      0
-104.99434476909465       46.78397632983558        -76.65629502205606       0
-84.90735344114269        10.000000000000005       -19.295035957322327      0
-95.76043633920129        63.017732689777326       -27.279100892619383      6.96213470067677E-5
-83.57040010518593        43.317045499638006       -17.692683754022603      8.106076185506562E-5
-49.34737616457265        137.07076666518668       -78.73760762398948       6.359658386259299E-5
-75.22308504826154        119.7266685986616        -106.02588116031868      0
-49.920599796973406       169.99999999999997       -120.03283921252755      0
-48.84763452807504        169.99999999999997       -74.35346038292379       0
-37.74563452098147        123.45790430640606       -124.39962650510046      0
-67.34478238688818        141.82704982371283       -59.209942474402744      5.5751710654505365E-5
-49.847117801070254       104.14153333037332       -83.12175486505517       1.0676197612909974E-4
-65.00000000000001        103.365909000724         3.267719482066278E-15    2.012547999123136E-4
-65                       76.63409099927603        1.6308677145231354E-15   2.2008179023643286E-4
-80.48782707004648        119.98905995223403       -54.99556414860539       7.15584149343141E-5
-90.7727780061701         83.36534464117781        -93.06074775673449       0
-84.06719595783126        89.4013743802786         -44.91068380657761       1.0209884669281669E-4
-66.95715687945076        96.77145385532597        -64.01621933581639       1.2065189848070895E-4
-60.016445659895396       129.99999999999997       -24.960237250149415      1.2984918398348445E-4
-81.78170669453282        148.2916664911195        -15.125693907133007      4.321940277971852E-5
-56.54828985351406        149.14583324555974       -16.176690825455378      8.29276098963481E-5
-44.38587071104694        130                      -9.951715381738431       2.2998750836721689E-4
-62.41252587583283        112.44499465075293       -18.15699903063542       1.905710115081212E-4
-77.35719256190495        106.54784823598216       -24.719318796868098      1.3410299527108962E-4
108.4115354756482         143.36590900072414       -7.776292412283358       2.074589236348852E-5
86.82307095129643         169.99999999999997       -15.552584824566724      0
120.03283921540327        169.99999999999997       -49.92059979005845       0
-18.343492601453235       146.54780449653998       -128.69932509217145      0
-21.65189624996997        138.27390224826996       -94.35787234921762       5.7747694746012315E-5
9.797174393178824E-15     169.99999999999997       -130                     0
-17.417526405785324       170                      -91.48549509479051       0
86.15480891490263         150.92012122875155       -45.86205467995838       2.837405993953104E-5
70.50511803599208         169.99999999999997       -54.036747172576234      0
91.92382103506826         170                      -91.92394207339417       0
51.46795442129336         170                      -79.16083170682886       0
49.9204744973572          169.99999999999997       -120.03289132101413      0
72.99078795213131         127.9904394557           -107.57483383267204      0
7.276195060982803E-15     128.8292831214481        -130                     0
-41.21346174764077        79.14400013795023        -123.29416276035033      0
16.644581403063363        76.4713866219559         -110.74711531807878      6.062029065858777E-5
38.68047405213145         109.18131635048115       -124.11213045912308      0
49.01010912752968         76.29068918581815        -120.40767917083873      0
4.88618327888199E-15      89.79742865100275        -130                     0
33.5134717799075          50.73452011075748        -125.605920279489        0
2.5101877493442084E-15    50.99447695599906        -130                     0
-14.265237805558707       107.59306622232461       -95.56080591633314       1.1160514929536482E-4
1.189671798752327         92.03222642214025        -103.15396061720595      9.795981492409469E-5
125.2139950270713         135.07185926358787       -34.949326879935185      0
129.99999999999994        116.73181800144829       6.535438964132576E-15    0
122.49061141042885        90.21363251188593        43.54365758981806        0
102.0228873342369         106.92553281115742       35.61408616990817        3.828277904055259E-5
95.07578103917214         63.22611478919892        28.795298773200912       5.847881939722395E-5
107.37767427128081        36.63409099927634        12.861592625466077       2.4767158607342827E-5
84.75534854256163         9.999999999999991        25.72318525093215        0
130                       9.999999999999993        0                        0
61.1232787979686          89.92865732733041        22.11209598807409        2.0605594338350472E-4
70.2695563232408          72.17864292014582        34.84593711995659        1.2333527248790789E-4
62.425914737120834        112.50140530792892       18.110912987304655       1.6029315190936607E-4
78.50814320149102         99.05695701518025        16.03388813737735        1.2854400900951746E-4
96.21295736856041         114.61661165468861       9.055456493652331        6.399659301973727E-5
130                       63.26818199855269        3.2617354290463114E-15   0
125.18012929808192        44.08134107221448        -35.07043240274486       0
96.14523898896346         47.50320252458782        -16.78099802428166       6.114623231840669E-5
78.99083676083177         128.0061717947105        -77.7185758498461        3.694296682872548E-5
107.74988366596683        129.30077342545255       -72.73212887005722       0
96.59589703839266         91.77163328485722        -87.00133720436854       0
67.85235016359344         91.34033806604984        -110.88759433442992      0
58.77900875615227         147.58108558221568       15.328476834412328       7.533529957643371E-5
65                        130                      4.898587196589412E-15    1.1796786255020925E-4
45.18552224355615         130                      11.021184851252652       2.03280832065822E-4
85.6702068373841          127.687480795214         -12.026885184022657      7.805771086001483E-5
-45.961971038361284       130.00000000000003       -45.96191051586994       1.4728007073162004E-4
-25.54369123905532        130                      -39.34491359555121       2.734400969735208E-4
-24.960299898486703       130                      -60.016419606263774      1.6255359415965048E-4
-45.515791450987216       144.70022679391477       -38.84283990210402       1.0978565464605379E-4
-45.58430211091629        147.3409251252342        -57.4626235429927        7.485404685148635E-5
-35.71330992243653        130                      -26.352202853670217      2.694833661627316E-4
-17.59218013139046        126.34177462689152       -78.96679713497377       1.3115106776571294E-4
-13.532464012810953       114.40964700551304       -63.575721920729904      2.662662620453031E-4
-31.084891112637234       112.33191644375562       -80.05131930339785       1.4657299324300288E-4
-23.090832842275177       86.08253314564985        -93.83826165697695       1.2779872143836452E-4
-70.32208697598526        43.39447017500592        -109.33802670316474      0
-45.412981990821685       38.57943016734874        -99.36004466316594       3.817208733858825E-5
-49.92059979935747        10.000000000000007       -120.03283921153609      0
-32.66923179288359        38.81752417440303        -125.82814190022373      0
-31.916427878991648       64.57200006897511        -92.11571739762078       1.1036891281756689E-4
4.874219293651037E-31     10.000000000000005       -130                     0
-17.266352834553103       10.000000000000005       -92.17297969863581       0
1.2550938746721048E-15    50.49723847799953        -97.5                    9.364644460728591E-5
25.058754461166817        42.01042812949238        -103.8581688510107       5.0705673578076606E-5
49.920474492233204        10                       -120.03289132314505      0
74.1995445012651          53.442790150885145       -106.74468415712691      0
-58.156732188759776       38.34133616029445        -72.89194742610813       7.09613373132169E-5
-48.55092236380387        10.000000000000005       -75.68327226570828       0
50.3933385981309          10                       -79.77445935533645       0
91.92382103306765         10                       -91.92394207539473       0
-44.53844151459778        29.99999999999999        33.07469465579044        1.0959577116064891E-4
-36.64049036002528        49.99999999999999        27.11780542533316        2.939760251959108E-4
-65                       50                       0                        1.6120136772759342E-4
-40.21450431337609        49.99999999999999        9.467625865465237        3.927829083850495E-4
-54.90154988076913        10.000000000000002       12.700683453800089       0
25.993554141763322        49.999999999999986       37.01661093301347        2.857549744019623E-4
16.8578537627032          10.000000000000002       -89.20727587136612       0
41.84125070212881         36.572672296454535       -85.63434499574699       6.83033138606079E-5
59.68712348980051         49.99999999999998        25.737849529384047       1.4430588478533753E-4
68.61355956651575         29.99999999999998        40.581516079461316       5.124868507152748E-5
37.407150827506456        49.99999999999999        27.40328289074084        2.9869692287657056E-4
62.53908394209454         67.34607140133835        17.7161784729002         1.9015726273014148E-4
71.04950698148389         67.39525577783851        15.43803205493584        1.5693366984324397E-4
120.03283921153609        9.999999999999995        -49.92059979935747       0
108.27915539936784        49.49006441768517        -71.94181333549743       0
70.00066884311516         9.999999999999998        -50.90057285372393       0
83.07295391603931         28.751601262293907       -33.8407854390028        4.8341983008247505E-5
82.07553645519694         9.999999999999996        -16.404991246833443      0