% Model:              stab.mph
% Version:            COMSOL 6.0.0.318
% Date:               May 9 2023, 00:11
% Table:              IV - I
% sigma                  Terminal current (A)     Terminal voltage (V)     Terminal current (A)     Terminal voltage (V)
10000                    -1.584445724452152E-8    -0.04729881415265168     -1.5907602760603345E-8   -0.047297083367840845
100000                   -1.590734117051381E-8    -0.04729698432676645     -1.590760611584196E-8    -0.04729708086635412
1000000                  -1.5907681962257784E-8   -0.04729698357911253     -1.59076107167422E-8     -0.04729706780836525
10000000                 -1.5907683475893322E-8   -0.047296978768689664    -1.5907686092530486E-8   -0.04729697664081793
100000000                -1.5907697622666994E-8   -0.04732188539418191     -1.59083587441873E-8     -0.04729600934329594
1000000000               -1.590771155551273E-8    -0.047321840755465056    -1.5861688614027587E-8   -0.04729085752366764
1.0E10                   -1.5908028380150423E-8   -0.047321962581102835    -1.593181511877678E-8    -0.047193029511316806
