% Model:              ex_vivo_config_full_model_small.mph
% Version:            COMSOL 6.1.0.346
% Date:               Mar 13 2024, 15:10
% Dimension:          3
% Nodes:              10685
% Expressions:        1
% Description:        Electric potential
% Length unit:        µm
% x                       y                        z                        V (V)
-38.493143709941236       109.27140044161803       124.17035832808814       0
-35.22514014246097        138.1033430819502        125.13668327850144       0
7.276079587660738E-15     128.82739729898657       130                      0
-18.322464707417154       112.85953709799068       98.76847863670622        7.493642071610028E-4
3.6296184461741E-15       109.27616760524226       65                       0.002960672619478182
-14.304901448347488       114.8167206117156        63.40638607075052        0.0023781353811364423
-4.5727571549990325       95.04434970425665        79.5706155364094         0.0020989267741261483
-11.692170442279197       120.35051884911269       76.76798119175405        0.001457116622830701
-16.329006373967857       100.54224217667026       62.91552710451466        0.0032229440139176857
2.7585734936506364E-15    95.05092399818892        65                       0.0038826224696355714
-30.05706237128858        105.44513099054547       78.5054396397226         0.001410441697545398
-72.71575203326418        127.52249182249977       107.76093636488521       0
-48.68176719742353        128.7612459112499        83.95318586445909        5.491612671270018E-4
-49.9204744931523         169.99999999999994       120.03289132276284       0
-18.401435269748756       139.63689201171505       90.18573975311797        5.510203585367101E-4
9.797174393178824E-15     169.99999999999997       130                      0
18.340714623174147        146.55329449311645       128.69972100634595       0
-24.647782361582884       130.00000000000003       60.14543536403299        0.0013466076882189858
-31.493334322885516       121.78898326148276       73.67978596760481        0.0011872296789338088
-52.69986750534241        169.99999999999997       76.88824407163881        0
-91.92382103847245        169.99999999999997       91.9239420699899         0
-78.46730940893524        128.745390664939         78.0825504651338         2.572086030884348E-4
4.898587196589412E-15     130                      65                       0.0014861947457101867
-12.563605181198204       139.95358191320872       68.1345794769206         0.0010086014309655283
-7.559341674163328        130                      45.02010022518351        0.002567064177755825
-16.746706763430726       82.93632006252498        106.84374634077948       6.149875079750397E-4
4.886029094821371E-15     89.79491063420433        130                      0
19.537314654515487        137.2820783236694        96.86043995283876        4.7426436933813436E-4
7.825959872430502         108.10333645127209       103.49515024592621       7.117362328542658E-4
37.73978877264417         123.47692438264646       124.40140008615741       0
49.92059979828632         169.99999999999997       120.03283921198152       0
9.373973118196588         88.33195933721757        64.32051482986846        0.003934603482509327
13.474855066116202        101.3870552830009        74.9078265191551         0.002230013648739743
1.9339661711533896E-15    81.5840644420888         65                       0.0038933379690190306
13.202429300050145        114.42163655821682       63.64507726900153        0.0024933824295069605
13.832867004675544        122.01915060039813       78.83468563368149        0.0013199354181351068
13.537167512157838        99.62442791578226        63.5747205715273         0.003495415592286257
26.61407534007482         98.5436987923066         70.4334814344847         0.0021788667011620323
24.96029989914316         130                      60.01641960599076        0.001403530124863407
27.839658945492484        113.54280077410404       80.73130786374206        0.0012640528705200544
-49.167533963292534       76.59711074833893        120.34348176768226       0
-27.570002680475255       86.2861696987998         92.61278369014275        0.0010062998701517655
-108.55977366384366       129.9365790147565        71.51765895256244        0
-8.551380220022244        75.52689481259154        73.90884700222243        0.002400796440524967
-14.578361768901216       85.25773984735301        63.34407129428167        0.003605580859606875
-33.52381688125238        50.734482125826126       125.60315960083275       0
-96.15465618304239        92.30335262503957        87.48875410200392        0
2.510169126452512E-15     50.9941728210973         130                      0
-13.345433690999197       68.41679378518734        93.59213357891909        0.0010169981468646772
4.715738264247293         73.14631933457126        78.05468518124137        0.0020609988982972383
-29.647338221141283       79.24431423304571        74.31106442323419        0.0017602630255175442
-35.89343350597989        63.29855537416945        90.64038821624142        7.712141799414848E-4
-11.670627371853339       67.13888801955586        63.94369755298287        0.002800012263104175
1.0797277728596426E-15    67.63329269486337        65                       0.003001561406755567
-7.350812554689074        60.0598258193771         79.371439281106          0.0015173077747600511
13.378049613972793        77.93544386356147        63.60839400995817        0.0035555475186391425
18.488091258690847        85.3290965646761         72.02225357078137        0.0025247046979192116
-120.03283921010483       169.99999999999994       49.92059980279904        0
-75.0818671054416         169.99999999999997       50.10113444755675        0
-84.21886678460629        129.96828950737824       48.404164565382416       4.047312687385507E-4
-125.09359669054358       135.06414785153575       35.37784712250907        0
-70.80369861109553        111.15167631251977       66.97715194049115        6.159496038351252E-4
-48.373409760722915       92.27649519173139        84.54560041504503        8.553464823970561E-4
-68.02970767397886        91.74406409433242        110.77887377019582       0
-33.08373928255481        110.58253018043692       55.95056921143822        0.002138186570979923
-28.71711184746697        92.80892628913034        58.31232705989423        0.002900063481572002
-35.3467420559133         146.60179270400008       70.57351342195041        5.621663896421876E-4
-45.4527410391487         130                      46.465549778978385       0.0011125545958880069
-41.61102113524102        147.47050061125483       51.66482419487101        6.918737659824168E-4
-23.91981837204285        140.53792770765364       44.6351169202046         0.0014443353587192803
-25.463891188679238       130                      36.12848024529467        0.002322731228196242
-92.65083375114995        101.32172220070233       30.21362501909112        5.427022952556975E-4
-122.67737595136454       89.79723089818175        43.014665286243584       0
-108.26493203990157       143.36590900072395       -8.429034535771624       1.5117605211282644E-4
-96.24189941225391        136.6670992540511        19.987565014805398       2.986790783849917E-4
-130                      169.99999999999997       9.797174393178824E-15    0
-91.44244955972387        169.99999999999997       18.86177902109997        0
9.64562439500137          150                      78.31596476463918        5.339876002653699E-4
-17.556298684526904       169.99999999999997       85.78630034219186        0
19.291248790002737        169.99999999999997       91.63192952927831        0
6.869592781559881         144.850738961861         57.19997488484474        0.0011276038235491397
9.88142556629267          130                      45.05341004989617        0.002558385046337417
-86.52986407980312        169.99999999999997       -16.858069071543255      0
-120.03289131979079       169.99999999999997       -49.92047450029883       0
6.723355544116533         76.708517322868          97.03748268637824        0.001014422741087892
41.19624376531396         79.15063683262122        123.29991686789101       0
23.143377086192125        91.4548013938282         87.53457277217412        0.0013302645568477227
48.05090814180085         99.35005349547097        86.93419799979421        8.126550863432789E-4
48.031726484258066        136.55345803612508       79.15524445725974        5.39473509881675E-4
75.22240202431422         119.73185914170244       106.02636574782922       0
50.745545076817066        169.99999999999997       73.66937294757396        0
91.92394207336645         169.99999999999997       91.92382103509598        0
67.29376005213514         141.02276877084995       59.12068153587931        4.526619796929016E-4
45.1846500456601          38.581541056518304       99.6434979862403         2.591934698405061E-4
32.66068297374839         38.821023583041644       125.830361152181         0
70.31489282828585         43.41632043511584        109.34265337253656       0
49.92059979935747         9.99999999999999         120.03283921153609       0
91.92394207539473         9.999999999999988        91.92382103306765        0
23.867754507831503        88.4413641057035         60.45932760752379        0.0033769905713976443
31.40435408492393         140                      53.661349257328716       0.0011128853186253426
45.961971036683224        130                      45.96191051754799        0.0011657796533682348
54.712718928773405        105.48685630244462       66.04322394248437        0.0011357541766682342
30.7892457407278          107.9773604439733        57.24528230969847        0.0024627880405048075
38.88486815614231         85.3849794264768         68.40366327425133        0.0018107466758884255
24.95578568186776         130                      40.47980223787508        0.0022280834460090735
-74.32338231157911        53.49245222976774        106.65849634120501       0
-63.73630373700762        61.85129781040312        72.03860321448808        6.496711335765141E-4
-78.21074728924064        84.74417489082364        55.69293270061232        6.811431704291456E-4
-32.41185516039647        72.82185816071798        56.342449760917226       0.002444347117888905
-54.81751786642629        77.05147961461455        59.03183298241873        0.0012960274877749567
1.255084563226256E-15     50.49708641054864        97.5                     6.800952257581483E-4
-4.874219293651037E-31    9.999999999999993        130                      0
-22.1153641393443         43.573182048816676       90.82062871388698        6.183856094517646E-4
-44.2307282786886         36.64927768708473        84.14125742777395        4.2613118445243326E-4
-49.920474492233204       9.999999999999996        120.03289132314505       0
-108.59471984706185       49.38641158829684        71.46458438512146        0
-85.61779596738575        58.3366734691275         44.408713460733466       4.989253361832921E-4
-125.17764798086498       44.090894297175566       35.07928799132973        0
-91.92382103306765        10                       91.92394207539473        0
31.907818887828252        64.57531841631061        92.11859445139113        8.329547858836198E-4
12.980366574447196        64.08658517247369        63.69073781636521        0.0026318002722842157
11.30969700517127         50.2485432052743         79.21863601744562        0.001190993413178146
22.642934250900524        71.25538113993603        77.86349423067463        0.0017160082008678644
-22.619333048667247       49.99999999999998        60.937294664800575       0.001542783746073126
-43.17781839283744        55.92564890520154        66.48794893964433        0.0011191812197723769
-2.4371096468255186E-31   49.999999999999986       65                       0.001692112552852974
-11.05768206967215        46.78659102440833        77.91031435694349        0.001109052022534088
18.17518653586403         9.999999999999993        92.94703749359722        0
29.904992684671058        69.78971556242212        57.712142678380694       0.0025529610236606627
64.78899018086777         67.62828846330832        71.5815986802437         7.273029948886603E-4
57.70861711757182         38.34205852999496        73.45663482029961        4.538136091476522E-4
47.66056560792469         9.999999999999995        76.8069187925866         0
-53.42273465398179        110.69244372651008       37.02717140277196        0.0015530218779309123
-73.42157916777083        121.40725150530058       32.908374658660534       7.795034862466942E-4
-59.87795990536889        130                      25.29067017820238        9.543040719736717E-4
-60.51485635602614        137.6460133833311        57.39176032612043        5.823286818399243E-4
-129.99999999999997       116.73181800144793       6.535438964132553E-15    0
-124.78138724624328       133.888337278203         -36.46375456399238       0
-107.45367672057134       36.63409099927601        -9.647517978661162       1.6638150418002792E-4
-130                      63.26818199855203        3.2617354290462696E-15   0
-130                      10.000000000000005       0                        0
-45.898731995844955       92.25166141882598        46.025062750349385       0.0021698072598699204
-65.81674097161122        97.71830930866686        46.36005205169214        0.0011408986119935123
-37.393871848552635       130                      25.708785315390358       0.001957320844546556
-62.62429155093535        112.84621350322293       17.41258475193865        0.0012927247846075446
-61.33865487647297        89.82799381033685        21.507427041488224       0.0016483336557318923
-77.64585291942979        84.30432877533023        23.783233777718298       9.781368974177557E-4
-96.3204360438548         65.27755867425509        8.676421268172742        4.8436834338417433E-4
-77.08742065736931        169.99999999999997       -52.05417785231807       0
-91.92394207672257        170                      -91.92382103173988       0
-108.31442314694215       129.57105325881662       -71.88870382991452       0
-97.5                     96.68295450036199        4.083153339327844E-15    5.273039220518266E-4
-93.59695656103807        123.16666596447797       -27.310376797313907      4.165271155945524E-4
-85.3421886092037         146.583332982239         -39.68227732481599       2.668112841326487E-4
-78.22122477986194        150                      9.430889510549987        3.502765336649239E-4
-65                       130                      4.898587196589412E-15    8.868776677045547E-4
-58.044865504461114       169.99999999999997       13.010026511669208       0
-81.25                    113.34147725018099       4.490870267958629E-15    7.88570504556083E-4
90.76103123317664         83.36823411997982        93.07220427974364        0
75.89476203347323         122.123757972564         53.94897236567169        6.097821191291034E-4
84.44220843282534         145.00223172984835       39.785253259133384       3.081845933271978E-4
78.33639068299826         169.99999999999997       52.93561273661268        0
108.30872899707482        129.57051115078946       71.89728244543187        0
120.03289132427953        169.99999999999997       49.92047448950527        0
77.53999564323101         9.999999999999993        55.42518262953859        0
104.9917719771067         46.78041452632279        76.65981879124968        0
120.03289132314505        9.99999999999999         49.920474492233204       0
45.357901801048726        88.52085148841388        46.55814369373441        0.0023729175205709917
55.33724248123397         82.34961321619507        50.76792350671166        0.0016120582449511258
82.46909958454636         90.3563391532228         46.07324359979232        7.323573130003577E-4
52.70164909102894         110.43841576860396       38.046500273823476       0.0016858742041804856
124.78091584239445        133.88698821440772       36.46536770050832        0
88.37922782159879         169.99999999999997       24.598615158639074       0
130                       169.99999999999997       9.797174393178824E-15    0
60.016445662139766        129.99999999999997       24.960237244752634       9.989091091597943E-4
36.57422759308064         130                      27.09540960739797        0.0020681490021383793
60.140722540466186        145.87574127889945       39.328469560982654       5.99724847289134E-4
81.55516325804493         123.63743311042893       27.684514749998296       6.569512319704961E-4
87.02471732949145         148.843740397607         6.285864987308212        2.99069860268915E-4
-69.11175671201845        35.92564890520155        61.13331300600077        3.814312594902331E-4
-53.14922516243613        70.2101433910385         37.41871008777113        0.001662268063828926
-44.752243697811714       49.99999999999999        47.14055657822611        0.0012375627575743273
-65.18501983259873        54.16833673456375        45.774635019479796       8.47904073475736E-4
-17.48348627822578        9.999999999999996        86.1757583059928         0
-44.3845848966432         33.32463884354236        58.607976041782194       6.714401321830347E-4
-52.568023051397326       9.999999999999998        77.6421266393065         0
-62.64087208770962        67.28693534995816        17.35284253634548        0.0013437411504336983
-94.07212945673007        37.63877933712754        13.853469062306848       2.97941862044974E-4
-120.03283921153609       10.000000000000002       49.92059979935747        0
-81.59194308437428        36.78221412116454        37.49339103415382        3.73897313043591E-4
-59.687096080834735       49.99999999999999        25.737913096476035       0.0010437752375367698
-78.35650077221985        52.462857343542844       15.603155799326165       6.953817921653977E-4
-74.4872096870293         10                       50.22802279751346        0
-91.82382286960531        10.000000000000002       19.030516856440954       0
22.619394010342535        49.99999999999998        60.93727203489123        0.0016014552203273966
9.087593267932014         29.99999999999998        78.97351874679862        5.951838134250275E-4
43.80680490112144         54.06588704620853        65.58438874934015        0.0011270647113207641
-22.846873069335487       39.999999999999986       45.01028888988468        0.0017290748551322004
-25.066097190023214       49.99999999999999        36.93718878668882        0.002692193343702521
-6.184961622961718        29.999999999999982       61.349674822297416       9.31700303334377E-4
-7.400201301019884        49.99999999999999        45.642316206217615       0.003059885529619341
1.644152037793353         39.999999999999986       53.45435018509774        0.0017816139808136569
9.473265698548422         49.999999999999986       45.559025547898045       0.003067660838544665
82.33944773345361         48.39020726316138        51.19883416031687        4.505076166368914E-4
125.12072445831093        43.775385728210495       35.28178440821033        0
45.87984794423422         39.17102926499747        55.426750230535106       8.823419035728802E-4
44.75230602126122         49.99999999999999        47.14049741628154        0.0013103544022722085
51.734024059052174        69.46666918096597        39.352137866416          0.0017842827115565653
34.05107877089662         39.99999999999999        37.396865640770606       0.0016275486650409808
-41.77655047356612        130                      7.966044877031002        0.0019727516111709567
-122.49072293416612       90.21358168920955        -43.54334386637468       0
-125.12043761429081       43.775430980868684       -35.282801634909376      0
-120.03289132314505       10.00000000000001        -49.920474492233204      0
-91.92394207539473        10.00000000000001        -91.92382103306765       0
-77.55437410055745        10.000000000000007       -53.844822307911755      0
-104.99434476909465       46.78397632983558        -76.65629502205606       0
-84.90735344114269        10.000000000000005       -19.295035957322327      0
-95.76043633920129        63.017732689777326       -27.279100892619383      4.353327307122305E-4
-83.57040010518593        43.317045499638006       -17.692683754022603      4.8684528471422574E-4
-49.34737616457265        137.07076666518668       -78.73760762398948       4.991997151878523E-4
-75.22308504826154        119.7266685986616        -106.02588116031868      0
-49.920599796973406       169.99999999999997       -120.03283921252755      0
-48.84763452807504        169.99999999999997       -74.35346038292379       0
-37.74563452098147        123.45790430640606       -124.39962650510046      0
-67.34478238688818        141.82704982371283       -59.209942474402744      4.149995835270064E-4
-49.847117801070254       104.14153333037332       -83.12175486505517       8.119253624276659E-4
-65.00000000000001        103.365909000724         3.267719482066278E-15    0.0014335223858909691
-65                       76.63409099927603        1.6308677145231354E-15   0.0014521076867037156
-80.48782707004648        119.98905995223403       -54.99556414860539       5.019820831284194E-4
-90.7727780061701         83.36534464117781        -93.06074775673449       0
-84.06719595783126        89.4013743802786         -44.91068380657761       6.618761132270665E-4
-66.95715687945076        96.77145385532597        -64.01621933581639       8.342727698164731E-4
-60.016445659895396       129.99999999999997       -24.960237250149415      9.495265363638508E-4
-81.78170669453282        148.2916664911195        -15.125693907133007      3.316004295473724E-4
-56.54828985351406        149.14583324555974       -16.176690825455378      6.556555643734215E-4
-44.38587071104694        130                      -9.951715381738431       0.0017993415321060882
-62.41252587583283        112.44499465075293       -18.15699903063542       0.0012928386177931649
-77.35719256190495        106.54784823598216       -24.719318796868098      9.019370018142796E-4
108.4115354756482         143.36590900072414       -7.776292412283358       1.5992922704592764E-4
86.82307095129643         169.99999999999997       -15.552584824566724      0
120.03283921540327        169.99999999999997       -49.92059979005845       0
-18.343492601453235       146.54780449653998       -128.69932509217145      0
-21.65189624996997        138.27390224826996       -94.35787234921762       4.8503125330809474E-4
9.797174393178824E-15     169.99999999999997       -130                     0
-17.417526405785324       170                      -91.48549509479051       0
86.15480891490263         150.92012122875155       -45.86205467995838       2.08360982470417E-4
70.50511803599208         169.99999999999997       -54.036747172576234      0
91.92382103506826         170                      -91.92394207339417       0
51.46795442129336         170                      -79.16083170682886       0
49.9204744973572          169.99999999999997       -120.03289132101413      0
72.99078795213131         127.9904394557           -107.57483383267204      0
7.276195060982803E-15     128.8292831214481        -130                     0
-41.21346174764077        79.14400013795023        -123.29416276035033      0
16.644581403063363        76.4713866219559         -110.74711531807878      4.7923378321667063E-4
38.68047405213145         109.18131635048115       -124.11213045912308      0
49.01010912752968         76.29068918581815        -120.40767917083873      0
4.88618327888199E-15      89.79742865100275        -130                     0
33.5134717799075          50.73452011075748        -125.605920279489        0
2.5101877493442084E-15    50.99447695599906        -130                     0
-14.265237805558707       107.59306622232461       -95.56080591633314       9.47988399615483E-4
1.189671798752327         92.03222642214025        -103.15396061720595      8.190556659094997E-4
125.2139950270713         135.07185926358787       -34.949326879935185      0
129.99999999999994        116.73181800144829       6.535438964132576E-15    0
122.49061141042885        90.21363251188593        43.54365758981806        0
102.0228873342369         106.92553281115742       35.61408616990817        3.4752229926463614E-4
95.07578103917214         63.22611478919892        28.795298773200912       4.7273749698384046E-4
107.37767427128081        36.63409099927634        12.861592625466077       1.736630969646565E-4
84.75534854256163         9.999999999999991        25.72318525093215        0
130                       9.999999999999993        0                        0
61.1232787979686          89.92865732733041        22.11209598807409        0.0017795478086469992
70.2695563232408          72.17864292014582        34.84593711995659        0.0011371160723514387
62.425914737120834        112.50140530792892       18.110912987304655       0.0013952539592717072
78.50814320149102         99.05695701518025        16.03388813737735        0.0010366637665569628
96.21295736856041         114.61661165468861       9.055456493652331        5.051667722943463E-4
130                       63.26818199855269        3.2617354290463114E-15   0
125.18012929808192        44.08134107221448        -35.07043240274486       0
96.14523898896346         47.50320252458782        -16.78099802428166       3.7940776735362157E-4
78.99083676083177         128.0061717947105        -77.7185758498461        2.723138993673775E-4
107.74988366596683        129.30077342545255       -72.73212887005722       0
96.59589703839266         91.77163328485722        -87.00133720436854       0
67.85235016359344         91.34033806604984        -110.88759433442992      0
58.77900875615227         147.58108558221568       15.328476834412328       6.971121396400913E-4
65                        130                      4.898587196589412E-15    9.422403240039003E-4
45.18552224355615         130                      11.021184851252652       0.0018404409392049413
85.6702068373841          127.687480795214         -12.026885184022657      5.778335703870122E-4
-45.961971038361284       130.00000000000003       -45.96191051586994       0.0011091932812995252
-25.54369123905532        130                      -39.34491359555121       0.002168882211650225
-24.960299898486703       130                      -60.016419606263774      0.0013464652896534668
-45.515791450987216       144.70022679391477       -38.84283990210402       8.494604546200845E-4
-45.58430211091629        147.3409251252342        -57.4626235429927        5.842063128331042E-4
-35.71330992243653        130                      -26.352202853670217      0.002051905801078804
-17.59218013139046        126.34177462689152       -78.96679713497377       0.0011236996129446427
-13.532464012810953       114.40964700551304       -63.575721920729904      0.0024071496899858258
-31.084891112637234       112.33191644375562       -80.05131930339785       0.00120223006622255
-23.090832842275177       86.08253314564985        -93.83826165697695       0.0010280329656545061
-70.32208697598526        43.39447017500592        -109.33802670316474      0
-45.412981990821685       38.57943016734874        -99.36004466316594       2.5325282974062905E-4
-49.92059979935747        10.000000000000007       -120.03283921153609      0
-32.66923179288359        38.81752417440303        -125.82814190022373      0
-31.916427878991648       64.57200006897511        -92.11571739762078       8.101885867101363E-4
4.874219293651037E-31     10.000000000000005       -130                     0
-17.266352834553103       10.000000000000005       -92.17297969863581       0
1.2550938746721048E-15    50.49723847799953        -97.5                    6.758085242739314E-4
25.058754461166817        42.01042812949238        -103.8581688510107       3.5349453626567785E-4
49.920474492233204        10                       -120.03289132314505      0
74.1995445012651          53.442790150885145       -106.74468415712691      0
-58.156732188759776       38.34133616029445        -72.89194742610813       4.3408927673791413E-4
-48.55092236380387        10.000000000000005       -75.68327226570828       0
50.3933385981309          10                       -79.77445935533645       0
91.92382103306765         10                       -91.92394207539473       0
-44.53844151459778        29.99999999999999        33.07469465579044        8.503722804400691E-4
-36.64049036002528        49.99999999999999        27.11780542533316        0.002271250590359819
-65                       50                       0                        9.746245165303272E-4
-40.21450431337609        49.99999999999999        9.467625865465237        0.0023313433866298124
-54.90154988076913        10.000000000000002       12.700683453800089       0
25.993554141763322        49.999999999999986       37.01661093301347        0.0027554801409451755
16.8578537627032          10.000000000000002       -89.20727587136612       0
41.84125070212881         36.572672296454535       -85.63434499574699       4.407010954333867E-4
59.68712348980051         49.99999999999998        25.737849529384047       0.001095331709358698
68.61355956651575         29.99999999999998        40.581516079461316       4.323475103409322E-4
37.407150827506456        49.99999999999999        27.40328289074084        0.002326648018562227
62.53908394209454         67.34607140133835        17.7161784729002         0.0014498726557043708
71.04950698148389         67.39525577783851        15.43803205493584        0.0011623311744607295
120.03283921153609        9.999999999999995        -49.92059979935747       0
108.27915539936784        49.49006441768517        -71.94181333549743       0
70.00066884311516         9.999999999999998        -50.90057285372393       0
83.07295391603931         28.751601262293907       -33.8407854390028        2.7955793919081864E-4
82.07553645519694         9.999999999999996        -16.404991246833443      0