% Model:              mesh_convergence.mph
% Version:            COMSOL 6.0.0.318
% Date:               May 8 2023, 17:25
% Table:              I - Global Evaluation 1
% mesh                   Terminal current (A)     Terminal current (A)     Terminal current (A)     Terminal current (A)     Terminal current (A)     Terminal current (A)     Terminal current (A)     Terminal current (A)
1                        -1.5925180737701375E-8   -1.058022559915342E-8    -2.0634983982175433E-8   -1.027517158382549E-8    -1.6094022687222343E-8   -1.0700329786716714E-8   -2.0598441760808992E-8   -1.0147347379011718E-8
2                        -1.5675994195675687E-8   -1.0446584274987525E-8   -2.046234350006142E-8    -1.017320506050399E-8    -1.5869368468538564E-8   -1.055733209284897E-8    -2.0504442288737383E-8   -1.0047924783022655E-8
4                        -1.5625182308282615E-8   -1.04329994844765E-8     -2.0366172287530023E-8   -1.0117949770086203E-8   -1.5788728860301195E-8   -1.0468088944204127E-8   -2.020934863378084E-8    -9.976934188523482E-9
8                        -1.5632064859201212E-8   -1.037221859894432E-8    -2.0270107912286582E-8   -1.0063509236683173E-8   -1.578823504208428E-8    -1.0453053570829443E-8   -2.0243635881817085E-8   -9.965187489286011E-9
16                       -1.557295370789016E-8    -1.040574249721783E-8    -2.019576277239238E-8    -1.0075477336266408E-8   -1.5770416579241054E-8   -1.0457914049599243E-8   -2.0257563841397966E-8   -9.880590952448682E-9
