% Model:              mesh_convergence.mph
% Version:            COMSOL 6.0.0.318
% Date:               May 8 2023, 17:25
% Table:              V_max - Volume Maximum 1
% mesh                   OK (V)                   OK (V)                   OK (V)                   OK (V)                   OK (V)                   OK (V)                   OK (V)                   OK (V)                   OK (V)                   OK (V)                   OK (V)                   OK (V)                   OK (V)                   OK (V)                   OK (V)                   OK (V)
1                        0.04747215087446882      0.0474735750963553       0.047458706968027176     0.04672293298349592      0.04746663931637134      0.04747348291610271      0.04745871915066045      0.04747401383738871      0.04672293298349592      0.0469765395119145       0.04649988907599128      0.04699074292816167      0.04671552239372053      0.04697136177456911      0.04649746751516414      0.046995746026371035
2                        0.048078939639654636     0.048101435211118905     0.0480868794299317       0.04734701454490005      0.0480949573573804       0.04810167621495361      0.04808705298497631      0.04810221730400025      0.04734701454490005      0.04759506782374662      0.047134423454904636     0.04760123509308133      0.047340494441155116     0.047598894199572396     0.04712608491853428      0.04762994224823749
4                        0.048328322785934866     0.048363656359598724     0.04834904020966812      0.04759934284154869      0.048356849768995305     0.04836345015435167      0.048349120590935164     0.048364172903740586     0.04759934284154869      0.04786689389095602      0.04738691653744915      0.047865603264076066     0.04760374550475158      0.047847629969752066     0.04738736025019348      0.04788764100947926
8                        0.048449657047135435     0.04846053721069078      0.04844604446028812      0.04770949263997531      0.048453918990684644     0.04846034403459506      0.048446087005084494     0.04846114182052874      0.04770949263997531      0.04795762029912024      0.047488304131970714     0.04797255878215716      0.04769854792889664      0.04795737350951694      0.047483518304725816     0.04797755057924313
16                       0.04846943017964706      0.04847013446564213      0.048454923732891994     0.04771019714017984      0.04846335145634897      0.0484699699095641       0.048455541200481705     0.04847013490432066      0.04771019714017984      0.047975699323183456     0.047479179298734374     0.04798268512006598      0.04771235494008252      0.04796248007106889      0.04748857953156749      0.04799782167246172
